Program Version,EnergyPlus, Version 8.4.0-09f5359d8a, YMD=2023.08.02 14:39
1,5,Environment Title[],Latitude[deg],Longitude[deg],Time Zone[],Elevation[m]
2,6,Day of Simulation[],Month[],Day of Month[],DST Indicator[1=yes 0=no],Hour[],StartMinute[],EndMinute[],DayType
3,3,Cumulative Day of Simulation[],Month[],Day of Month[],DST Indicator[1=yes 0=no],DayType  ! When Daily Report Variables Requested
4,2,Cumulative Days of Simulation[],Month[]  ! When Monthly Report Variables Requested
5,1,Cumulative Days of Simulation[] ! When Run Period Report Variables Requested
8,9,PERIM,Zone People Total Heating Energy [J] !Monthly  [Value,Min,Day,Hour,Minute,Max,Day,Hour,Minute]
9,9,CORE,Zone People Total Heating Energy [J] !Monthly  [Value,Min,Day,Hour,Minute,Max,Day,Hour,Minute]
71,9,PERIM,Zone Lights Electric Energy [J] !Monthly  [Value,Min,Day,Hour,Minute,Max,Day,Hour,Minute]
93,9,CORE,Zone Lights Electric Energy [J] !Monthly  [Value,Min,Day,Hour,Minute,Max,Day,Hour,Minute]
125,9,PERIM,Zone Electric Equipment Electric Energy [J] !Monthly  [Value,Min,Day,Hour,Minute,Max,Day,Hour,Minute]
137,9,CORE,Zone Electric Equipment Electric Energy [J] !Monthly  [Value,Min,Day,Hour,Minute,Max,Day,Hour,Minute]
138,9,PERIM,Zone Windows Total Transmitted Solar Radiation Energy [J] !Monthly  [Value,Min,Day,Hour,Minute,Max,Day,Hour,Minute]
139,9,CORE,Zone Windows Total Transmitted Solar Radiation Energy [J] !Monthly  [Value,Min,Day,Hour,Minute,Max,Day,Hour,Minute]
140,9,PERIM,Zone Mean Radiant Temperature [C] !Monthly [Value,Min,Day,Hour,Minute,Max,Day,Hour,Minute]
141,9,CORE,Zone Mean Radiant Temperature [C] !Monthly [Value,Min,Day,Hour,Minute,Max,Day,Hour,Minute]
142,9,PERIM,Zone Mean Air Temperature [C] !Monthly [Value,Min,Day,Hour,Minute,Max,Day,Hour,Minute]
143,9,PERIM,Zone Operative Temperature [C] !Monthly [Value,Min,Day,Hour,Minute,Max,Day,Hour,Minute]
144,9,CORE,Zone Mean Air Temperature [C] !Monthly [Value,Min,Day,Hour,Minute,Max,Day,Hour,Minute]
145,9,CORE,Zone Operative Temperature [C] !Monthly [Value,Min,Day,Hour,Minute,Max,Day,Hour,Minute]
146,9,PERIM,Zone Infiltration Total Heat Loss Energy [J] !Monthly  [Value,Min,Day,Hour,Minute,Max,Day,Hour,Minute]
147,9,PERIM,Zone Infiltration Total Heat Gain Energy [J] !Monthly  [Value,Min,Day,Hour,Minute,Max,Day,Hour,Minute]
148,9,PERIM,Zone Infiltration Air Change Rate [ach] !Monthly [Value,Min,Day,Hour,Minute,Max,Day,Hour,Minute]
149,9,CORE,Zone Infiltration Total Heat Loss Energy [J] !Monthly  [Value,Min,Day,Hour,Minute,Max,Day,Hour,Minute]
150,9,CORE,Zone Infiltration Total Heat Gain Energy [J] !Monthly  [Value,Min,Day,Hour,Minute,Max,Day,Hour,Minute]
151,9,CORE,Zone Infiltration Air Change Rate [ach] !Monthly [Value,Min,Day,Hour,Minute,Max,Day,Hour,Minute]
224,9,PERIM,Zone Air Temperature [C] !Monthly [Value,Min,Day,Hour,Minute,Max,Day,Hour,Minute]
225,9,PERIM,Zone Air Relative Humidity [%] !Monthly [Value,Min,Day,Hour,Minute,Max,Day,Hour,Minute]
258,9,CORE,Zone Air Temperature [C] !Monthly [Value,Min,Day,Hour,Minute,Max,Day,Hour,Minute]
259,9,CORE,Zone Air Relative Humidity [%] !Monthly [Value,Min,Day,Hour,Minute,Max,Day,Hour,Minute]
260,9,PERIM IDEAL LOADS AIR,Zone Ideal Loads Supply Air Total Heating Energy [J] !Monthly  [Value,Min,Day,Hour,Minute,Max,Day,Hour,Minute]
291,9,PERIM IDEAL LOADS AIR,Zone Ideal Loads Supply Air Total Cooling Energy [J] !Monthly  [Value,Min,Day,Hour,Minute,Max,Day,Hour,Minute]
322,9,PERIM IDEAL LOADS AIR,Zone Ideal Loads Zone Total Heating Energy [J] !Monthly  [Value,Min,Day,Hour,Minute,Max,Day,Hour,Minute]
323,9,CORE IDEAL LOADS AIR,Zone Ideal Loads Supply Air Total Heating Energy [J] !Monthly  [Value,Min,Day,Hour,Minute,Max,Day,Hour,Minute]
324,9,CORE IDEAL LOADS AIR,Zone Ideal Loads Supply Air Total Cooling Energy [J] !Monthly  [Value,Min,Day,Hour,Minute,Max,Day,Hour,Minute]
325,9,CORE IDEAL LOADS AIR,Zone Ideal Loads Zone Total Heating Energy [J] !Monthly  [Value,Min,Day,Hour,Minute,Max,Day,Hour,Minute]
408,9,DHW PERIM,Water Use Equipment Heating Energy [J] !Monthly  [Value,Min,Day,Hour,Minute,Max,Day,Hour,Minute]
461,9,DHW CORE,Water Use Equipment Heating Energy [J] !Monthly  [Value,Min,Day,Hour,Minute,Max,Day,Hour,Minute]
End of Data Dictionary
1,ARCHSIM,  37.57, 126.97,   9.00,  87.10
4,31, 1
8,51566344.1014735,7056.14998651799, 1,16,15,23520.49995506, 1, 1,15
9,30990891.4495739,4240.6802749827, 1,16,15,14135.600916609, 1, 1,15
71,34526772.2201097,0.0, 1, 1,15,42054.5337638365, 1,20,15
93,20750267.8078549,0.0, 1, 1,15,25274.3822263763, 1,20,15
125,41814222.1423285,6007.79053769093, 1, 1,15,30038.9526884546, 1,20,15
137,25129957.1850824,3610.62603233947, 1, 1,15,18053.1301616973, 1,20,15
138,993787160.630755,0.0, 1, 1,15,2046866.12285928,14,12,30
139,0.0,0.0, 1, 1,15,0.0, 1, 1,15
140,25.3847993023614,17.3802066272014,22, 8,45,39.4050350878951, 4,15,60
141,24.3038661651838,19.6396324844324,22, 9,60,29.2170748265562, 4,23,15
142,24.9878162849337,19.9999999999998,22,10,15,39.133945278953, 4,15,45
143,25.1863077936475,18.6901033136007,22, 8,45,39.2517514511041, 4,15,60
144,23.6800576555116,19.9999999999999,22, 5,45,28.7254617890972, 4,20,60
145,23.9919619103477,19.8198162422162,22, 9,60,28.9637851608549, 4,22,60
146,264652378.268721,10874.8120886849, 4,10,32,135270.433652596,14,15,45
147,0.0,0.0, 1, 1,15,0.0, 1, 1,15
148,0.385027170579863,0.369912573786068, 2,10,30,0.403724880055812,14,14,60
149,151549955.933406,5932.87916184164, 3,12,15,68939.5222945179,10,24,60
150,0.0,0.0, 1, 1,15,0.0, 1, 1,15
151,0.383369664556918,0.366885993305997, 6,15,60,0.395289260625177,22,24,60
224,24.9878162849337,19.9999999999998,22,10,15,39.133945278953, 4,15,45
225,15.6822312779059,3.8220781460133,16,15,45,34.858902867258, 2, 7,30
258,23.6800576555116,19.9999999999999,22, 5,45,28.7254617890972, 4,20,60
259,15.7983932025765,5.50955234072548,14,19,60,31.2600783982585, 2, 7,60
260,99802475.2909709,0.0, 1, 1,15,344625.408199594,22, 8,45
291,0.0,0.0, 1, 1,15,0.0, 1, 1,15
322,99802475.290973,0.0, 1, 1,15,344625.408199612,22, 8,45
323,3426593.43968342,0.0, 1, 1,15,57702.5025538555,22, 8,60
324,0.0,0.0, 1, 1,15,0.0, 1, 1,15
325,3426593.43968352,0.0, 1, 1,15,57702.5025538584,22, 8,60
408,103312071.437302,0.0, 1, 1,15,166632.37328597, 1, 7,15
461,62089590.5485086,0.0, 1, 1,15,100144.500884691, 1, 7,15
4,59, 2
8,46551773.5110547,7056.14998651799, 1, 9,15,23520.49995506, 1, 1,15
9,27977181.3341528,4240.6802749827, 1, 9,15,14135.600916609, 1, 1,15
71,31204464.0527666,0.0, 1, 1,15,42054.5337638365, 1,20,15
93,18753591.6119712,0.0, 1, 1,15,25274.3822263763, 1,20,15
125,37776986.9010003,6007.79053769093, 1, 1,15,30038.9526884546, 1,19,15
137,22703616.4913504,3610.62603233947, 1, 1,15,18053.1301616973, 1,19,15
138,880947745.485633,0.0, 1, 1,15,2028348.26913021, 9,12,30
139,0.0,0.0, 1, 1,15,0.0, 1, 1,15
140,26.6083081965871,17.5722553081719, 4, 7,30,41.0788246711976, 7,16,15
141,25.4168981655753,19.6908273398869, 4, 9,45,32.0377806082933,28,22,45
142,26.1674509039038,19.9999999999998,20, 6,45,40.3739213131984, 7,15,45
143,26.3878795502455,18.7861276540859, 4, 7,30,40.724721134059, 7,15,60
144,24.8429808989869,19.9999999999999, 4, 4,45,31.5521021217192,28,20,60
145,25.1299395322811,19.8454136699434, 4, 9,45,31.77838770301,28,22,30
146,225763478.931251,8684.09797772705,24,11, 2,135136.148787892, 7,15,45
147,0.0,0.0, 1, 1, 7,0.0, 1, 1, 7
148,0.382599146428164,0.36931101170194, 3,15,60,0.404428377969275, 7,16,52
149,128974959.332264,5572.45121714209,24,11,29,78537.0056964101, 8, 2,60
150,0.0,0.0, 1, 1, 7,0.0, 1, 1, 7
151,0.380960303601433,0.366620915536367,23,15,60,0.400020226212026, 8, 1, 7
224,26.1674509039038,19.9999999999998,20, 6,45,40.3739213131984, 7,15,45
225,15.9040269200156,3.47784601542456, 9,15,45,38.1182832471278, 3,22,15
258,24.8429808989869,19.9999999999999, 4, 4,45,31.5521021217192,28,20,60
259,16.0617645836663,4.98498894502294, 9,17,60,37.8766226113706, 3,22,15
260,66449289.8491099,0.0, 1, 1, 7,300773.565748473, 4, 7,30
291,0.0,0.0, 1, 1, 7,0.0, 1, 1, 7
322,66449289.8491116,0.0, 1, 1, 7,300773.565748489, 4, 7,30
323,1976059.51349038,0.0, 1, 1, 7,42313.3074933471, 4, 8,60
324,0.0,0.0, 1, 1, 7,0.0, 1, 1, 7
325,1976059.51349045,0.0, 1, 1, 7,42313.3074933471, 4, 8,60
408,93314129.0401434,0.0, 1, 1, 7,166632.37328597, 1, 7,15
461,56080920.4954271,0.0, 1, 1, 7,100144.500884691, 1, 7,15
4,90, 3
8,51378180.1018331,7056.14998651799, 1, 9,15,23520.49995506, 1, 1,15
9,30877806.642241,4240.6802749827, 1, 9,15,14135.600916609, 1, 1,15
71,34673963.0882831,0.0, 1, 1,15,42054.5337638365, 1,20,15
93,20838728.1456472,0.0, 1, 1,15,25274.3822263763, 1,20,15
125,41886315.6287808,6007.79053769093, 1, 1,15,30038.9526884546, 1,19,15
137,25173284.6974705,3610.62603233947, 1, 1,15,18053.1301616973, 1,19,15
138,768008628.308989,0.0, 1, 1,15,1691956.75161119, 6,12,30
139,0.0,0.0, 1, 1,15,0.0, 1, 1,15
140,26.6719796190103,18.8673268435913, 9, 7,60,39.3893061848854,19,15,60
141,26.1974216224464,21.2451729455068, 9,11,30,31.8638302967414,19,23,60
142,26.1221434981219,19.9999999999999, 9, 5,30,39.2633888308556,19,15,60
143,26.3970615585661,19.4336634217956, 9, 7,60,39.3263475078705,19,15,60
144,25.7471436066017,20.7873078016811, 9,11,30,31.6094430736663,19,21,60
145,25.9722826145241,21.016240373594, 9,11,30,31.6961525545064,19,23,45
146,198461131.538448,6578.38054788534,29,11,47,94873.0050288586, 7,14,60
147,0.0,0.0, 1, 1,15,0.0, 1, 1,15
148,0.375186665780103,0.363454764459375,30,11,22,0.389378640057495, 7,14,60
149,117897083.199799,3926.48427966449,29,11,60,58775.6299685863, 6, 3,60
150,0.0,0.0, 1, 1,15,0.0, 1, 1,15
151,0.374759384595404,0.360171021271238,30,15,60,0.387674845529356, 8, 3,60
224,26.1221434981219,19.9999999999999, 9, 5,30,39.2633888308556,19,15,60
225,19.5013847294432,5.2253099716993, 7,15,15,36.9376653565609,27, 5,60
258,25.7471436066017,20.7826426280563, 9,11,30,31.6094430736663,19,21,60
259,19.3236179076305,7.0562571637809, 7,17,60,32.4127986949208,27, 6,60
260,13826012.8978926,0.0, 1, 1,15,151384.695398579, 9, 6,60
291,0.0,0.0, 1, 1,15,0.0, 1, 1,15
322,13826012.8978929,0.0, 1, 1,15,151384.695398585, 9, 6,60
323,0.0,0.0, 1, 1,15,0.0, 1, 1,15
324,0.0,0.0, 1, 1,15,0.0, 1, 1,15
325,0.0,0.0, 1, 1,15,0.0, 1, 1,15
408,103312071.437302,0.0, 1, 1,15,166632.37328597, 1, 7,15
461,62089590.5485086,0.0, 1, 1,15,100144.500884691, 1, 7,15
4,120, 4
8,50145705.9041878,7056.14998651799, 1,15,15,23520.49995506, 1, 1,15
9,30137101.1542107,4240.6802749827, 1,15,15,14135.600916609, 1, 1,15
71,33223081.6734308,0.0, 1, 1,15,42054.5337638365, 1,19,15
93,19966761.9588372,0.0, 1, 1,15,25274.3822263763, 1,19,15
125,40372352.4132828,6007.79053769093, 1, 1,15,30038.9526884546, 1,19,15
137,24263406.937321,3610.62603233947, 1, 1,15,18053.1301616973, 1,19,15
138,472848703.952332,0.0, 1, 1,15,1369612.60338823, 2,12,30
139,0.0,0.0, 1, 1,15,0.0, 1, 1,15
140,25.8198583227365,18.5462249669208,26, 6,45,38.9000995740262,10,15,45
141,25.7493506101293,20.3348801984556,26,11,60,33.5396796242877,10,22,60
142,25.5031962184762,19.9999999999999,26, 1,30,38.7029552217119,10,15,45
143,25.6615272706063,19.2731124834604,26, 6,45,38.801527397869,10,15,45
144,25.5333320013201,20.0256667860808,26,11,30,33.3827583311298,10,21,30
145,25.6413413057247,20.1819376025491,26,11,45,33.427986864282,10,21,60
146,131407772.773708,205.259301757316,19,19,60,83593.1426609769,11,22,60
147,0.0,0.0, 1, 1,15,0.0, 1, 1,15
148,0.366047589803409,0.354052490546316,19,11,50,0.376021023711029, 1,14,60
149,79610698.5699597,0.0,19,19,45,50028.8738188559,11,22,60
150,6891.47148761417,0.0, 1, 1,15,4520.42891814212,19,19,60
151,0.366113957801736,0.351084374645066,19,12,60,0.377489717623765, 1, 3,22
224,25.5031962184762,19.9999999999999,26, 1,30,38.7029552217119,10,15,45
225,30.9566641089791,11.5957860858073,11,16,60,60.5335495180301,20,23,45
258,25.5333320013201,20.0256667860808,26,11,30,33.3827583311298,10,21,30
259,30.2148699078101,13.7916869549475,11,16,60,53.9054488614154,25, 1,60
260,11980785.2000398,0.0, 1, 1,15,147964.405684441,26, 4,30
291,0.0,0.0, 1, 1,15,0.0, 1, 1,15
322,11980785.2000402,0.0, 1, 1,15,147964.405684451,26, 4,30
323,0.0,0.0, 1, 1,15,0.0, 1, 1,15
324,0.0,0.0, 1, 1,15,0.0, 1, 1,15
325,0.0,0.0, 1, 1,15,0.0, 1, 1,15
408,99979423.9715822,0.0, 1, 1,15,166632.37328597, 1, 6,15
461,60086700.5308148,0.0, 1, 1,15,100144.500884691, 1, 6,15
4,151, 5
8,51378180.101833,7056.14998651799, 1, 8,15,23520.49995506, 1, 1,15
9,30877806.642241,4240.6802749827, 1, 8,15,14135.600916609, 1, 1,15
71,34673963.0882831,0.0, 1, 1,15,42054.5337638365, 1,19,15
93,20838728.1456472,0.0, 1, 1,15,25274.3822263763, 1,19,15
125,41886315.6287808,6007.79053769093, 1, 1,15,30038.9526884546, 1,18,15
137,25173284.6974705,3610.62603233947, 1, 1,15,18053.1301616973, 1,18,15
138,333249552.179908,0.0, 1, 1,15,788605.561790042, 5,12,15
139,0.0,0.0, 1, 1,15,0.0, 1, 1,15
140,27.1032318192123,21.1040471290802,11, 7,15,34.5861496698942,26,15,60
141,27.3380237775321,23.4410845661454, 4,12,15,32.8310385934002,26,22,60
142,26.8845824680954,20.8625599303363,11, 6,60,34.385453277227,26,15,60
143,26.9939071436538,20.9852685881363,11, 6,60,34.4858014735606,26,15,60
144,27.2574646476583,23.2292444883208, 4,11,45,32.968738781148,26,21,60
145,27.2977442125952,23.341288219593, 4,11,45,32.8864852049092,26,22,60
146,102334837.478308,0.0,11,18,60,67989.856062436,17, 5,60
147,23016.7911644719,0.0, 1, 1,15,5415.6900242711,21,19,60
148,0.360782537790447,0.352033690714419,23,15,60,0.36879196981825, 1, 3,60
149,64201114.3645421,0.0, 8,18,60,44608.6169233372,17, 5,60
150,54975.5379367068,0.0, 1, 1,15,6847.02445360708,11,18,60
151,0.361250535007325,0.348272629608801,23,15,60,0.371396965788194, 1, 3,60
224,26.8845824680954,20.8625599303363,11, 6,60,34.385453277227,26,15,60
225,40.3354137410839,17.9094150505657, 8,16,60,66.8570928872603,28,14,60
258,27.2574646476583,23.2292444883208, 4,11,45,32.968738781148,26,21,60
259,39.0845570175216,20.8977595414638, 8,17,15,62.0757752230343,28,15,30
260,0.0,0.0, 1, 1,15,0.0, 1, 1,15
291,0.0,0.0, 1, 1,15,0.0, 1, 1,15
322,0.0,0.0, 1, 1,15,0.0, 1, 1,15
323,0.0,0.0, 1, 1,15,0.0, 1, 1,15
324,0.0,0.0, 1, 1,15,0.0, 1, 1,15
325,0.0,0.0, 1, 1,15,0.0, 1, 1,15
408,103312071.437302,0.0, 1, 1,15,166632.37328597, 1, 6,15
461,62089590.5485086,0.0, 1, 1,15,100144.500884691, 1, 6,15
4,181, 6
8,49769377.9049069,7056.14998651799, 1, 8,15,23520.49995506, 1, 1,15
9,29910931.539545,4240.6802749827, 1, 8,15,14135.600916609, 1, 1,15
71,33517463.4097776,0.0, 1, 1,15,42054.5337638365, 1,19,15
93,20143682.6344219,0.0, 1, 1,15,25274.3822263763, 1,19,15
125,40516539.3861873,6007.79053769093, 1, 1,15,30038.9526884546, 1,18,15
137,24350061.9620971,3610.62603233947, 1, 1,15,18053.1301616973, 1,18,15
138,295649109.619296,0.0, 1, 1,15,627249.917536594, 1,12,15
139,0.0,0.0, 1, 1,15,0.0, 1, 1,15
140,31.149869403248,25.7970954644646, 1, 7,15,36.8106043941705,10,16,45
141,31.2540279047317,27.2235388110456, 1,11,60,35.1841151814411,11,22,60
142,30.9666458144055,25.3998662025026, 1, 5,60,36.6611484562437,10,19,30
143,31.0582576088267,25.6425636641859, 1, 6,15,36.7116889177329,10,16,45
144,31.198838553814,27.0612083267224, 1,11,30,35.3184732691329,11,20,60
145,31.2264332292728,27.1439082522304, 1,11,30,35.2385864765281,11,22,60
146,97843803.4852605,1700.61229195028, 1,15,60,55996.366317874, 1, 4,60
147,0.0,0.0, 1, 1,15,0.0, 1, 1,15
148,0.359216806932111,0.352873026472573,15,15,60,0.366123411662921,12, 3,60
149,60563234.744975,0.0, 1,15,45,38360.5647408123,12, 7,15
150,3576.35418887729,0.0, 1, 1,15,3428.74255791152, 1,15,60
151,0.359503221613501,0.350841904149967,25,15,60,0.369213778499325,12, 6,60
224,30.9666458144055,25.3998662025026, 1, 5,60,36.6611484562437,10,19,30
225,45.5160826337752,17.6123537636503, 1,15,15,72.6832510013445,14, 5,60
258,31.198838553814,27.0612083267224, 1,11,30,35.3184732691329,11,20,60
259,44.6139910102239,20.4748409515168, 1,15,15,67.1832960725355,14, 5,60
260,0.0,0.0, 1, 1,15,0.0, 1, 1,15
291,0.0,0.0, 1, 1,15,0.0, 1, 1,15
322,0.0,0.0, 1, 1,15,0.0, 1, 1,15
323,0.0,0.0, 1, 1,15,0.0, 1, 1,15
324,0.0,0.0, 1, 1,15,0.0, 1, 1,15
325,0.0,0.0, 1, 1,15,0.0, 1, 1,15
408,99979423.9715822,0.0, 1, 1,15,166632.37328597, 1, 6,15
461,60086700.5308148,0.0, 1, 1,15,100144.500884691, 1, 6,15
4,212, 7
8,51754508.101114,7056.14998651799, 1,15,15,23520.49995506, 1, 1,15
9,31103976.2569068,4240.6802749827, 1,15,15,14135.600916609, 1, 1,15
71,34379581.3519363,0.0, 1, 1,15,42054.5337638365, 1,19,15
93,20661807.4700626,0.0, 1, 1,15,25274.3822263763, 1,19,15
125,41742128.6558763,6007.79053769093, 1, 1,15,30038.9526884546, 1,19,15
137,25086629.6726944,3610.62603233947, 1, 1,15,18053.1301616973, 1,19,15
138,261469341.00035,0.0, 1, 1,15,627341.589011719,27,12,30
139,0.0,0.0, 1, 1,15,0.0, 1, 1,15
140,26.2267930252108,23.9419716546298,12, 6,45,32.7663323621668, 1,14,15
141,25.516551420035,24.4949100200822,17,22,15,31.1080007477207, 1, 1,15
142,25.4877009401162,23.9535990785791,17,14,15,32.6388709124878, 1,13,60
143,25.8572469826636,23.9847327860471,12, 4,30,32.6185547112985, 1,13,60
144,25.210704222387,23.9643426384875, 3,14,15,30.872386102654, 1, 1,15
145,25.363627821211,24.2498737405101,17,21,60,30.9901934251874, 1, 1,15
146,22908320.903061,0.0, 1,14, 2,34077.254235195, 1, 1,15
147,22906122.2911357,0.0, 1, 1,15,52373.6394887578,30,14,30
148,0.350097730799478,0.341375658863992,20,15,60,0.358074061255042, 1, 1,60
149,12568604.8736487,0.0, 1,14, 2,24183.442879482, 1, 3,60
150,13586754.641565,0.0, 1, 1,15,29681.7151236896,31,15,60
151,0.349773673283849,0.341363472934423,20,15,60,0.360049635772461, 1, 3,60
224,25.4877009401162,23.5236953910438,18,14, 4,32.6388709124878, 1,13,60
225,73.4906016266426,49.16918948899,12,13,60,91.4382855997055, 2,14, 3
258,25.210704222387,23.5473042513958,27,14, 3,30.872386102654, 1, 1,15
259,74.7708299142179,57.7379731170515, 6,22,22,91.5251474280737, 2,14, 1
260,0.0,0.0, 1, 1,15,0.0, 1, 1,15
291,319107502.908419,0.0, 1, 1,15,1059326.2447126, 1,14,45
322,2.809125693271529E-006,0.0, 1, 1,15,9.648601917433552E-008,27,14,45
323,0.0,0.0, 1, 1,15,0.0, 1, 1,15
324,118540977.014256,0.0, 1, 1,15,539334.355927591, 1,14,45
325,6.306122896598315E-007,0.0, 1, 1,15,2.706315171963070E-008, 1,15,15
408,103312071.437302,0.0, 1, 1,15,166632.37328597, 1, 6,15
461,62089590.5485086,0.0, 1, 1,15,100144.500884691, 1, 6,15
4,243, 8
8,51378180.1018331,7056.14998651799, 1, 8,15,23520.49995506, 1, 1,15
9,30877806.642241,4240.6802749827, 1, 8,15,14135.600916609, 1, 1,15
71,34673963.0882831,0.0, 1, 1,15,42054.5337638365, 1,19,15
93,20838728.1456472,0.0, 1, 1,15,25274.3822263763, 1,19,15
125,41886315.6287808,6007.79053769093, 1, 1,15,30038.9526884546, 1,18,15
137,25173284.6974705,3610.62603233947, 1, 1,15,18053.1301616973, 1,18,15
138,389226603.031432,0.0, 1, 1,15,1148983.51299073,30,12,15
139,0.0,0.0, 1, 1,15,0.0, 1, 1,15
140,26.7567061475653,23.17139774731,26, 7,30,34.7293218267959,30,14,15
141,25.603191240045,24.3866611039218,26, 8,15,27.3691290994474, 7,14,15
142,25.7168115059756,22.9928381094736,26, 7,15,34.5605682015263,30,13,60
143,26.2367588267704,23.085043059946,26, 7,15,34.4503473541481,30,13,60
144,25.2239631477111,23.9282478873834,25,14,15,27.6081660984667, 7,13,60
145,25.413577193878,24.3483175015839,25,21,60,27.4399339955061, 7,13,60
146,25209855.6656773,0.0, 1,14, 1,30594.5415669208,28, 6,60
147,24803776.7453731,0.0, 1, 1,15,52799.9892359124, 7,15,60
148,0.349813328177954,0.338959699488868, 7,15,60,0.358235813172744,20,13,52
149,12987864.5730201,0.0, 1,12,52,19800.486490008,26, 6,60
150,14871473.4643256,0.0, 1, 1,15,31004.1138164024, 7,15,60
151,0.349239770801916,0.33894495463616, 7,15,60,0.357827387217779,28, 6,60
224,25.7168115059756,22.9928381094736,26, 7,15,34.6395440550437,30,13,60
225,71.3993166353556,35.895130493218,30,13,60,93.2531090958975, 2, 5,60
258,25.2239631477111,23.5420393589149, 9,14, 3,27.6081660984667, 7,13,60
259,73.4359353397782,55.2676601370204,30,13,60,94.0911397510632, 2, 5,60
260,0.0,0.0, 1, 1,15,0.0, 1, 1,15
291,439712552.733262,0.0, 1, 1,15,1408425.04021424,30,14,45
322,6.147739229204904E-006,0.0, 1, 1,15,1.203261490445584E-007,17,14,45
323,0.0,0.0, 1, 1,15,0.0, 1, 1,15
324,134718684.951949,0.0, 1, 1,15,282563.242188397, 7,14, 1
325,8.093421593519617E-007,0.0, 1, 1,15,2.742126525845379E-008,20,14,60
408,103312071.437302,0.0, 1, 1,15,166632.37328597, 1, 6,15
461,62089590.5485086,0.0, 1, 1,15,100144.500884691, 1, 6,15
4,273, 9
8,49957541.9045474,7056.14998651799, 1, 8,15,23520.49995506, 1, 1,15
9,30024016.3468778,4240.6802749827, 1, 8,15,14135.600916609, 1, 1,15
71,33370272.5416042,0.0, 1, 1,15,42054.5337638365, 1,19,15
93,20055222.2966296,0.0, 1, 1,15,25274.3822263763, 1,19,15
125,40444445.8997351,6007.79053769093, 1, 1,15,30038.9526884546, 1,18,15
137,24306734.4497091,3610.62603233947, 1, 1,15,18053.1301616973, 1,18,15
138,521283074.192928,0.0, 1, 1,15,1472669.83669422,19,12,30
139,0.0,0.0, 1, 1,15,0.0, 1, 1,15
140,26.2595523016608,22.5538325506184,30, 7,30,36.4391280958209,19,14,15
141,25.2192993264729,23.9575270721308,30, 8,60,26.9007055223571, 8,14,15
142,25.0471909964738,22.3091470640731,30, 7,30,36.0905819859533,19,13,60
143,25.6533716490673,22.4314898073457,30, 7,30,36.0273724710575,19,13,60
144,24.8046577358494,23.8582913258621,30, 7,60,26.9828863505152, 8,13,60
145,25.0119785311612,23.9235001523948,30, 7,60,26.8734577260333, 8,13,60
146,49394665.2314359,0.0, 1,14, 2,49076.4206235454,15,24,60
147,2824184.82050177,0.0, 1, 1,15,24484.9748150059,20,18,60
148,0.353925714254095,0.3424007386808, 6,15,60,0.365938535834127,21,13,52
149,28164311.626268,0.0, 1,12,50,29478.025592677,15,24,60
150,1672866.95481111,0.0, 1, 1,15,16337.3437721997,20,18,60
151,0.35364965035041,0.342405016241622, 6,15,60,0.362810919841952,30,24,60
224,25.0471909964738,22.3091470640731,30, 7,30,36.2723844829345,19,13,60
225,61.6356146854223,24.1514357979786,20,13,60,86.2827098334229, 9, 6,60
258,24.8046577358494,23.5556004236219,26,14, 3,27.0149349273158, 8,13,60
259,61.8806948929594,37.2100045185164,16,13,60,84.5243142665372, 9, 6,60
260,0.0,0.0, 1, 1,15,0.0, 1, 1,15
291,433750195.751808,0.0, 1, 1,15,1693248.79450746,19,14,45
322,1.056113106301382E-005,0.0, 1, 1,15,1.387434167554602E-007,22,14,60
323,0.0,0.0, 1, 1,15,0.0, 1, 1,15
324,98908667.8468795,0.0, 1, 1,15,227250.299031322, 8,14,45
325,2.109991476603948E-006,0.0, 1, 1,15,2.350759586988716E-008, 5,15,15
408,99979423.9715822,0.0, 1, 1,15,166632.37328597, 1, 6,15
461,60086700.5308148,0.0, 1, 1,15,100144.500884691, 1, 6,15
4,304,10
8,51566344.1014735,7056.14998651799, 1,15,15,23520.49995506, 1, 1,15
9,30990891.4495739,4240.6802749827, 1,15,15,14135.600916609, 1, 1,15
71,34526772.2201097,0.0, 1, 1,15,42054.5337638365, 1,19,15
93,20750267.8078549,0.0, 1, 1,15,25274.3822263763, 1,19,15
125,41814222.1423285,6007.79053769093, 1, 1,15,30038.9526884546, 1,19,15
137,25129957.1850824,3610.62603233947, 1, 1,15,18053.1301616973, 1,19,15
138,776028848.441556,0.0, 1, 1,15,1819855.46904774,31,12,15
139,0.0,0.0, 1, 1,15,0.0, 1, 1,15
140,33.6517344745251,22.0351179319481,24, 7,30,46.3015324864725,15,15,45
141,32.8017174777094,23.98788402131, 1,10,60,38.1440659818995,15,22,30
142,33.1376884077814,21.4484099825253,24, 7,30,45.9432023743337,15,15,30
143,33.3947114411533,21.7417639572367,24, 7,30,46.1116905888685,15,15,30
144,32.4259674290245,23.802233908707, 1, 7,60,37.7782738627386,15,19,45
145,32.6138424533669,23.9311941840918, 1, 7,60,37.9242333339459,15,20,60
146,188905972.249109,4903.41774021494, 1,11,17,105080.018942197,15,24,60
147,0.0,0.0, 1, 1,15,0.0, 1, 1,15
148,0.371465782458152,0.358545279008965, 1,10,45,0.386280189267838,31,14, 7
149,111140186.442683,2722.45852775008, 1,11,17,65666.1540907265,15,24,60
150,0.0,0.0, 1, 1,15,0.0, 1, 1,15
151,0.37063488553921,0.356756364977976, 1,12,60,0.38316596171593,19, 3,22
224,33.1376884077814,21.4484099825253,24, 7,30,45.9432023743337,15,15,30
225,28.4652918049621,7.21119543666282,19,15,30,56.3677447029694,28,24,30
258,32.4259674290245,23.802233908707, 1, 7,60,37.7782738627386,15,19,45
259,28.6289096701278,11.5067956398716,19,16,40,48.7150429591784, 1, 1,15
260,0.0,0.0, 1, 1,15,0.0, 1, 1,15
291,0.0,0.0, 1, 1,15,0.0, 1, 1,15
322,0.0,0.0, 1, 1,15,0.0, 1, 1,15
323,0.0,0.0, 1, 1,15,0.0, 1, 1,15
324,0.0,0.0, 1, 1,15,0.0, 1, 1,15
325,0.0,0.0, 1, 1,15,0.0, 1, 1,15
408,103312071.437302,0.0, 1, 1,15,166632.37328597, 1, 6,15
461,62089590.5485086,0.0, 1, 1,15,100144.500884691, 1, 6,15
4,334,11
8,49769377.904907,7056.14998651799, 1, 9,15,23520.49995506, 1, 1,15
9,29910931.539545,4240.6802749827, 1, 9,15,14135.600916609, 1, 1,15
71,33517463.4097776,0.0, 1, 1,15,42054.5337638365, 1,20,15
93,20143682.6344219,0.0, 1, 1,15,25274.3822263763, 1,20,15
125,40516539.3861873,6007.79053769093, 1, 1,15,30038.9526884546, 1,19,15
137,24350061.9620971,3610.62603233947, 1, 1,15,18053.1301616973, 1,19,15
138,837357256.542712,0.0, 1, 1,15,1871952.46688525,27,12,30
139,0.0,0.0, 1, 1,15,0.0, 1, 1,15
140,29.2579883415015,18.5564232331702,11, 8,45,45.1006232203126, 6,15,45
141,28.6801937382535,21.7203932202434,11,10,30,36.9918839689665, 7,22,45
142,28.7005112636732,19.9999999999999,12, 7,30,44.8862241848087, 6,15,30
143,28.9792498025873,19.2782116165851,11, 8,45,44.9829439995031, 6,15,45
144,28.207891472602,21.4178958433467,11, 8,60,36.6749447081624, 7,20,60
145,28.4440426054278,21.6058859946787,11, 9,60,36.8214388340253, 7,22,30
146,202026236.060798,8400.23310770736,24,11,47,102041.190850951,22,15,60
147,0.0,0.0, 1, 1,15,0.0, 1, 1,15
148,0.375897449012073,0.364639068587133,19, 9,45,0.391010336008543,22,15,30
149,119922837.473466,4334.30576128071,24,11,47,58536.0807626022,23, 7,30
150,0.0,0.0, 1, 1,15,0.0, 1, 1,15
151,0.37532533177238,0.363948578752002,14,13,45,0.386629282464067,23, 7,30
224,28.7005112636732,19.9999999999999,12, 7,30,44.8862241848087, 6,15,30
225,25.6085349421787,7.94424881105652,27,15,30,50.8978815940047,19, 8,60
258,28.207891472602,21.4178958433467,11, 8,60,36.6749447081624, 7,20,60
259,25.5145907552731,12.7813482868638,23,15,52,43.74837257662,19,11,30
260,14221885.3956107,0.0, 1, 1,15,177113.503813312,11, 8,30
291,0.0,0.0, 1, 1,15,0.0, 1, 1,15
322,14221885.3956111,0.0, 1, 1,15,177113.503813312,11, 8,30
323,0.0,0.0, 1, 1,15,0.0, 1, 1,15
324,0.0,0.0, 1, 1,15,0.0, 1, 1,15
325,0.0,0.0, 1, 1,15,0.0, 1, 1,15
408,99979423.9715822,0.0, 1, 1,15,166632.37328597, 1, 7,15
461,60086700.5308148,0.0, 1, 1,15,100144.500884691, 1, 7,15
4,365,12
8,51754508.101114,7056.14998651799, 1, 9,15,23520.49995506, 1, 1,15
9,31103976.2569068,4240.6802749827, 1, 9,15,14135.600916609, 1, 1,15
71,34379581.3519363,0.0, 1, 1,15,42054.5337638365, 1,20,15
93,20661807.4700626,0.0, 1, 1,15,25274.3822263763, 1,20,15
125,41742128.6558763,6007.79053769093, 1, 1,15,30038.9526884546, 1,19,15
137,25086629.6726944,3610.62603233947, 1, 1,15,18053.1301616973, 1,19,15
138,938688001.111673,0.0, 1, 1,15,2037621.72987741,31,12,30
139,0.0,0.0, 1, 1,15,0.0, 1, 1,15
140,25.2961758783036,17.4481829540692,31, 6,60,37.1957562063873, 9,15,15
141,24.3508101696675,19.7607499512572,31, 9,60,27.6856189391128,28,22,60
142,24.8937662859759,19.9999999999998,15, 7,30,37.0753649277564, 9,14,60
143,25.0949710821397,18.7240914770346,31, 6,60,37.1062355494698, 9,15,15
144,23.7671826455748,20.,31, 5,45,27.4392491142204,28,20,60
145,24.0589964076212,19.8803749756286,31, 9,60,27.5380647386536,28,22,60
146,246776992.904015,10241.2495787379, 7,10,17,140791.246400854,31,14,60
147,0.0,0.0, 1, 1,15,0.0, 1, 1,15
148,0.38242804199979,0.368229962017679,25, 3,30,0.406748878512556,31,14,45
149,142119513.231994,6381.89236177976, 6,11,47,69613.5927398271,31,23,60
150,0.0,0.0, 1, 1,15,0.0, 1, 1,15
151,0.381003423323061,0.367534487778155,29,15,60,0.397087065501366,31,21,60
224,24.8937662859759,19.9999999999998,15, 7,30,37.0753649277564, 9,14,60
225,17.6494791435835,4.31398973658572,20,14,45,41.5948426544838,25, 3,30
258,23.7671826455748,20.,31, 5,45,27.4392491142204,28,20,60
259,17.7484920384417,6.63801418905869,17,19,60,37.0799087426571,25, 4,45
260,83108180.6101944,0.0, 1,10,15,345481.392523243,31, 6,60
291,0.0,0.0, 1, 1,15,0.0, 1, 1,15
322,83108180.6101962,0.0, 1,10,15,345481.392523243,31, 6,60
323,2409641.50881679,0.0, 1, 1,15,51594.0138840058,31, 6,60
324,0.0,0.0, 1, 1,15,0.0, 1, 1,15
325,2409641.50881685,0.0, 1, 1,15,51594.013884006,31, 6,60
408,103312071.437302,0.0, 1, 1,15,166632.37328597, 1, 7,15
461,62089590.5485086,0.0, 1, 1,15,100144.500884691, 1, 7,15
End of Data
 Number of Records Written=         384
