Program Version,EnergyPlus, Version 8.4.0-09f5359d8a, YMD=2023.08.02 14:39
1,5,Environment Title[],Latitude[deg],Longitude[deg],Time Zone[],Elevation[m]
2,6,Day of Simulation[],Month[],Day of Month[],DST Indicator[1=yes 0=no],Hour[],StartMinute[],EndMinute[],DayType
3,3,Cumulative Day of Simulation[],Month[],Day of Month[],DST Indicator[1=yes 0=no],DayType  ! When Daily Report Variables Requested
4,2,Cumulative Days of Simulation[],Month[]  ! When Monthly Report Variables Requested
5,1,Cumulative Days of Simulation[] ! When Run Period Report Variables Requested
8,9,PERIM,Zone People Total Heating Energy [J] !Monthly  [Value,Min,Day,Hour,Minute,Max,Day,Hour,Minute]
9,9,CORE,Zone People Total Heating Energy [J] !Monthly  [Value,Min,Day,Hour,Minute,Max,Day,Hour,Minute]
71,9,PERIM,Zone Lights Electric Energy [J] !Monthly  [Value,Min,Day,Hour,Minute,Max,Day,Hour,Minute]
93,9,CORE,Zone Lights Electric Energy [J] !Monthly  [Value,Min,Day,Hour,Minute,Max,Day,Hour,Minute]
125,9,PERIM,Zone Electric Equipment Electric Energy [J] !Monthly  [Value,Min,Day,Hour,Minute,Max,Day,Hour,Minute]
137,9,CORE,Zone Electric Equipment Electric Energy [J] !Monthly  [Value,Min,Day,Hour,Minute,Max,Day,Hour,Minute]
138,9,PERIM,Zone Windows Total Transmitted Solar Radiation Energy [J] !Monthly  [Value,Min,Day,Hour,Minute,Max,Day,Hour,Minute]
139,9,CORE,Zone Windows Total Transmitted Solar Radiation Energy [J] !Monthly  [Value,Min,Day,Hour,Minute,Max,Day,Hour,Minute]
140,9,PERIM,Zone Mean Radiant Temperature [C] !Monthly [Value,Min,Day,Hour,Minute,Max,Day,Hour,Minute]
141,9,CORE,Zone Mean Radiant Temperature [C] !Monthly [Value,Min,Day,Hour,Minute,Max,Day,Hour,Minute]
142,9,PERIM,Zone Mean Air Temperature [C] !Monthly [Value,Min,Day,Hour,Minute,Max,Day,Hour,Minute]
143,9,PERIM,Zone Operative Temperature [C] !Monthly [Value,Min,Day,Hour,Minute,Max,Day,Hour,Minute]
144,9,CORE,Zone Mean Air Temperature [C] !Monthly [Value,Min,Day,Hour,Minute,Max,Day,Hour,Minute]
145,9,CORE,Zone Operative Temperature [C] !Monthly [Value,Min,Day,Hour,Minute,Max,Day,Hour,Minute]
146,9,PERIM,Zone Infiltration Total Heat Loss Energy [J] !Monthly  [Value,Min,Day,Hour,Minute,Max,Day,Hour,Minute]
147,9,PERIM,Zone Infiltration Total Heat Gain Energy [J] !Monthly  [Value,Min,Day,Hour,Minute,Max,Day,Hour,Minute]
148,9,PERIM,Zone Infiltration Air Change Rate [ach] !Monthly [Value,Min,Day,Hour,Minute,Max,Day,Hour,Minute]
149,9,CORE,Zone Infiltration Total Heat Loss Energy [J] !Monthly  [Value,Min,Day,Hour,Minute,Max,Day,Hour,Minute]
150,9,CORE,Zone Infiltration Total Heat Gain Energy [J] !Monthly  [Value,Min,Day,Hour,Minute,Max,Day,Hour,Minute]
151,9,CORE,Zone Infiltration Air Change Rate [ach] !Monthly [Value,Min,Day,Hour,Minute,Max,Day,Hour,Minute]
224,9,PERIM,Zone Air Temperature [C] !Monthly [Value,Min,Day,Hour,Minute,Max,Day,Hour,Minute]
225,9,PERIM,Zone Air Relative Humidity [%] !Monthly [Value,Min,Day,Hour,Minute,Max,Day,Hour,Minute]
258,9,CORE,Zone Air Temperature [C] !Monthly [Value,Min,Day,Hour,Minute,Max,Day,Hour,Minute]
259,9,CORE,Zone Air Relative Humidity [%] !Monthly [Value,Min,Day,Hour,Minute,Max,Day,Hour,Minute]
260,9,PERIM IDEAL LOADS AIR,Zone Ideal Loads Supply Air Total Heating Energy [J] !Monthly  [Value,Min,Day,Hour,Minute,Max,Day,Hour,Minute]
291,9,PERIM IDEAL LOADS AIR,Zone Ideal Loads Supply Air Total Cooling Energy [J] !Monthly  [Value,Min,Day,Hour,Minute,Max,Day,Hour,Minute]
322,9,PERIM IDEAL LOADS AIR,Zone Ideal Loads Zone Total Heating Energy [J] !Monthly  [Value,Min,Day,Hour,Minute,Max,Day,Hour,Minute]
323,9,CORE IDEAL LOADS AIR,Zone Ideal Loads Supply Air Total Heating Energy [J] !Monthly  [Value,Min,Day,Hour,Minute,Max,Day,Hour,Minute]
324,9,CORE IDEAL LOADS AIR,Zone Ideal Loads Supply Air Total Cooling Energy [J] !Monthly  [Value,Min,Day,Hour,Minute,Max,Day,Hour,Minute]
325,9,CORE IDEAL LOADS AIR,Zone Ideal Loads Zone Total Heating Energy [J] !Monthly  [Value,Min,Day,Hour,Minute,Max,Day,Hour,Minute]
408,9,DHW PERIM,Water Use Equipment Heating Energy [J] !Monthly  [Value,Min,Day,Hour,Minute,Max,Day,Hour,Minute]
461,9,DHW CORE,Water Use Equipment Heating Energy [J] !Monthly  [Value,Min,Day,Hour,Minute,Max,Day,Hour,Minute]
End of Data Dictionary
1,ARCHSIM,  37.57, 126.97,   9.00,  87.10
4,31, 1
8,51566344.126434,7056.14998993358, 1,16,15,23520.4999664453, 1, 1,15
9,30990891.4394054,4240.6802735913, 1,16,15,14135.600911971, 1, 1,15
71,34526772.2368226,0.0, 1, 1,15,42054.5337841933, 1,20,15
93,20750267.8010466,0.0, 1, 1,15,25274.3822180835, 1,20,15
125,41814222.1625695,6007.79054059905, 1, 1,15,30038.9527029952, 1,20,15
137,25129957.1768372,3610.62603115479, 1, 1,15,18053.1301557739, 1,20,15
138,284814262.154279,0.0, 1, 1,15,908543.813122005,27, 9,45
139,0.0,0.0, 1, 1,15,0.0, 1, 1,15
140,18.7461019769124,17.1092691336119,23, 7,60,21.121421150512,27,10,60
141,19.8663675669055,19.434440234678,15, 8,60,20.3223871131761, 8,23,60
142,20.0100903495835,19.9999999999998,14, 5,30,20.6324242878055, 8,14,15
143,19.3780961632479,18.5546345668059,23, 7,60,20.8012241516979, 4,10,60
144,20.0085338177922,19.9999999999999,22, 4,60,20.4854899806648, 8,20,45
145,19.9374506923489,19.717220117339,15, 8,60,20.3694887758421, 8,21,60
146,212258981.01265,25639.7484649868, 6,15,60,109258.646443281,23, 6,60
147,0.0,0.0, 1, 1,15,0.0, 1, 1,15
148,0.378650992886154,0.36150375635533, 6,15,60,0.394036020265178,23, 6,60
149,127777702.299461,15392.4639565436, 6,15,60,65763.5834514359,23, 6,60
150,0.0,0.0, 1, 1,15,0.0, 1, 1,15
151,0.37864752880896,0.36150409608618, 6,15,60,0.39403395240213,23, 6,60
224,20.0100903495835,19.9999999999998,14, 5,30,20.6324242878055, 8,14,15
225,17.513217393939,6.61798158403748,14,19,60,34.9804913620808, 2,22,45
258,20.0085338177922,19.9999999999999,22, 4,60,20.4854899806648, 8,20,45
259,17.6304078798402,6.19344410875651,14,19,60,35.2293154264954, 2,22,45
260,508945194.872124,0.0, 3, 9,60,389457.540546946,23, 6,60
291,0.0,0.0, 1, 1,15,0.0, 1, 1,15
322,508945194.872135,0.0, 3, 9,60,389457.540546946,23, 6,60
323,90685003.1895268,0.0, 1,20,15,73063.7128460226,23, 6,60
324,0.0,0.0, 1, 1,15,0.0, 1, 1,15
325,90685003.1895295,0.0, 1,20,15,73063.7128460229,23, 6,60
408,103312071.48731,0.0, 1, 1,15,166632.37336663, 1, 7,15
461,62089590.5281361,0.0, 1, 1,15,100144.500851833, 1, 7,15
4,59, 2
8,46551773.5335881,7056.14998993358, 1, 9,15,23520.4999664453, 1, 1,15
9,27977181.3249732,4240.6802735913, 1, 9,15,14135.600911971, 1, 1,15
71,31204464.0678713,0.0, 1, 1,15,42054.5337841933, 1,20,15
93,18753591.605818,0.0, 1, 1,15,25274.3822180835, 1,20,15
125,37776986.919287,6007.79054059905, 1, 1,15,30038.9527029952, 1,19,15
137,22703616.4839012,3610.62603115479, 1, 1,15,18053.1301557739, 1,19,15
138,351915158.679241,0.0, 1, 1,15,1099304.90969343,26, 8,60
139,0.0,0.0, 1, 1,15,0.0, 1, 1,15
140,19.7295468365147,17.3577258501921, 8, 6,60,24.7296438383881,28,11,30
141,20.3106490031499,19.5426299414157, 4, 8,60,22.4904734610533,28,22,30
142,20.44045149008,19.9999999999998, 8, 4,45,24.4839864230981,28,11,30
143,20.0849991632973,18.678862925096, 8, 6,60,24.6068151307431,28,11,30
144,20.2484651525103,19.9999999999999,10, 2,30,22.5251696672852,28,20,60
145,20.2795570778301,19.7713149707079, 4, 8,60,22.4896513351766,28,20,60
146,171287437.720682,15251.3907142544,26, 9,48,100298.680465769, 8, 6,60
147,0.0,0.0, 1, 1,15,0.0, 1, 1,15
148,0.37535905673567,0.360995179862794,23,15,60,0.390288174926328, 8, 6,60
149,102217335.078331,8383.82608359362,26,10, 3,60301.9612967785, 8, 6,60
150,0.0,0.0, 1, 1,15,0.0, 1, 1,15
151,0.375117575394649,0.359030021558224,23,15,60,0.390287690331877, 8, 6,60
224,20.44045149008,19.9999999999998, 8, 4,45,24.4839864230981,28,11,30
225,18.0260751925704,6.08926649317294, 9,17,60,37.9761998442483, 3,22,15
258,20.2484651525103,19.9999999999999,10, 2,30,22.5251696672852,28,20,60
259,18.2921261933715,6.06710548183528, 9,17,60,38.3759103168073, 3,21,60
260,301409663.364281,0.0, 1,10,15,349300.546843277, 8, 6,60
291,0.0,0.0, 1, 1,15,0.0, 1, 1,15
322,301409663.364288,0.0, 1,10,15,349300.546843293, 8, 6,60
323,48110478.2602764,0.0, 2,19,15,61692.622815308, 8, 6,60
324,0.0,0.0, 1, 1,15,0.0, 1, 1,15
325,48110478.7159329,0.0, 2,19,15,61692.6228153099, 8, 6,60
408,93314129.0853123,0.0, 1, 1,15,166632.37336663, 1, 7,15
461,56080920.4770262,0.0, 1, 1,15,100144.500851833, 1, 7,15
4,90, 3
8,51378180.1267024,7056.14998993358, 1, 9,15,23520.4999664453, 1, 1,15
9,30877806.6321097,4240.6802735913, 1, 9,15,14135.600911971, 1, 1,15
71,34673963.1050672,0.0, 1, 1,15,42054.5337841933, 1,20,15
93,20838728.1388099,0.0, 1, 1,15,25274.3822180835, 1,20,15
125,41886315.6490567,6007.79054059905, 1, 1,15,30038.9527029952, 1,19,15
137,25173284.6892111,3610.62603115479, 1, 1,15,18053.1301557739, 1,19,15
138,592707722.544244,0.0, 1, 1,15,1461432.30348616,30, 9,30
139,0.0,0.0, 1, 1,15,0.0, 1, 1,15
140,23.2581878728758,17.8242648389236, 8, 7,45,30.0357129310296,30,11,45
141,23.0704940568848,19.9140425931105, 8, 7,60,26.7931453989159,30,22,60
142,23.0291772506593,19.9999999999998, 8, 1,30,29.6917704504606,30,11,30
143,23.1436825617675,18.9121324194618, 8, 7,45,29.8580578099076,30,11,45
144,22.7355316649049,19.9999999999999, 8, 5,60,26.7538704018972,30,19,60
145,22.9030128608949,19.9570212965553, 8, 7,60,26.7442500940318,30,21,45
146,165638795.920321,11478.1786303623,19, 8,18,84650.7910344582, 7, 9,45
147,0.0,0.0, 1, 1,15,0.0, 1, 1,15
148,0.371337702811486,0.36128098776517,19,15,60,0.384259982473501, 7, 9,30
149,98509040.2087385,7206.03638767366,11,10,18,49666.7704337068, 8, 6,60
150,0.0,0.0, 1, 1,15,0.0, 1, 1,15
151,0.370983464592382,0.357520932839734,19,15,60,0.383294112773144, 8, 6,60
224,23.0291772506593,19.9999999999998, 8, 1,30,29.6917704504606,30,11,30
225,21.0387766860763,8.14438200921318, 7,16,15,37.7555227491266,13, 3,30
258,22.7355316649049,19.9999999999999, 8, 5,60,26.7538704018972,30,19,60
259,21.2300741560964,8.22020394326178, 7,17,60,33.8531684940611, 6, 1,30
260,70945128.3634002,0.0, 1, 9,60,271531.990791314, 8, 6,60
291,0.0,0.0, 1, 1,15,0.0, 1, 1,15
322,70945128.3634017,0.0, 1, 9,60,271531.990791322, 8, 6,60
323,2925952.67830464,0.0, 1, 1,15,38235.7552776753, 8, 6,60
324,0.0,0.0, 1, 1,15,0.0, 1, 1,15
325,2925952.67890363,0.0, 1, 1,15,38235.7552776774, 8, 6,60
408,103312071.48731,0.0, 1, 1,15,166632.37336663, 1, 7,15
461,62089590.5281361,0.0, 1, 1,15,100144.500851833, 1, 7,15
4,120, 4
8,50145705.9284608,7056.14998993358, 1,15,15,23520.4999664453, 1, 1,15
9,30137101.1443224,4240.6802735913, 1,15,15,14135.600911971, 1, 1,15
71,33223081.6895126,0.0, 1, 1,15,42054.5337841933, 1,19,15
93,19966761.952286,0.0, 1, 1,15,25274.3822180835, 1,19,15
125,40372352.4328257,6007.79054059905, 1, 1,15,30038.9527029952, 1,19,15
137,24263406.9293601,3610.62603115479, 1, 1,15,18053.1301557739, 1,19,15
138,628875904.070819,0.0, 1, 1,15,1568310.57747048,29, 8,60
139,0.0,0.0, 1, 1,15,0.0, 1, 1,15
140,28.2679004289633,19.3016814130677, 1, 7,30,39.3302671888887,11,11,30
141,27.8696046615011,22.6756018107574,27, 7,30,35.1593864869464,12,20,60
142,27.8084082128511,19.9999999999999, 1, 7,30,39.1704486764897,11,11,15
143,28.0381543209072,19.6508407065338, 1, 7,30,39.2119203459304,11,11,15
144,27.5716670345933,22.3649720937373,26, 9,30,35.0606933666536,12,19,45
145,27.7206358480472,22.5409561291639,27, 8,30,35.0896753122973,12,19,60
146,153770814.090666,8274.09443753503, 7, 7,47,87901.703171478,11,22,60
147,0.0,0.0, 1, 1,15,0.0, 1, 1,15
148,0.368846001446915,0.362277303460284, 8,15,60,0.381070387104814, 1, 9,60
149,91924183.047197,5355.17029083216,19,19,60,53532.5988149201,13, 2,60
150,0.0,0.0, 1, 1,15,0.0, 1, 1,15
151,0.368583616284606,0.356682256774043,19,12,60,0.376985593760602, 1, 2,60
224,27.8084082128511,19.9999999999999, 1, 7,30,39.1704486764897,11,11,15
225,27.85850342129,10.8555700010957,11,16,60,54.5938932714854,20,23,45
258,27.5716670345933,22.3649720937373,26, 9,30,35.0606933666536,12,19,45
259,27.5968190573344,12.8573243173032,11,16,60,46.0844103275742,20,24,30
260,3058749.78838125,0.0, 1, 1,15,118800.336677849, 1, 7,30
291,0.0,0.0, 1, 1,15,0.0, 1, 1,15
322,3058749.78838132,0.0, 1, 1,15,118800.336677852, 1, 7,30
323,0.0,0.0, 1, 1,15,0.0, 1, 1,15
324,0.0,0.0, 1, 1,15,0.0, 1, 1,15
325,0.0,0.0, 1, 1,15,0.0, 1, 1,15
408,99979424.0199775,0.0, 1, 1,15,166632.37336663, 1, 6,15
461,60086700.5110995,0.0, 1, 1,15,100144.500851833, 1, 6,15
4,151, 5
8,51378180.1267025,7056.14998993358, 1, 8,15,23520.4999664453, 1, 1,15
9,30877806.6321097,4240.6802735913, 1, 8,15,14135.600911971, 1, 1,15
71,34673963.1050672,0.0, 1, 1,15,42054.5337841933, 1,19,15
93,20838728.1388099,0.0, 1, 1,15,25274.3822180835, 1,19,15
125,41886315.6490567,6007.79054059905, 1, 1,15,30038.9527029952, 1,18,15
137,25173284.6892111,3610.62603115479, 1, 1,15,18053.1301557739, 1,18,15
138,655385833.189187,0.0, 1, 1,15,1534410.71443013,16, 8,60
139,0.0,0.0, 1, 1,15,0.0, 1, 1,15
140,33.0461306753142,23.3511564310275,30, 6,15,42.6563729876472,26,11,45
141,32.6630185157429,25.8777845738818,30, 7,15,38.4631768462742,26,22,45
142,32.5812330041875,23.0622322665128,30, 5,60,42.2986971446546,26,11,45
143,32.8136818397508,23.2245778019285,30, 5,60,42.4775350661509,26,11,45
144,32.36889853524,25.7035811427282,30, 5,60,38.3444250405785,26,19,60
145,32.5159585254915,25.8200369218531,30, 6,60,38.3879660407449,26,21,60
146,160330437.499801,7929.76627244694,30, 9,18,89312.4944364651, 8, 1,60
147,0.0,0.0, 1, 1,15,0.0, 1, 1,15
148,0.367588967938011,0.358194704209567,25,15,60,0.380136892082678, 6, 9,55
149,96666553.1494152,2489.292513392,21,19,60,57351.852861198, 8, 1,60
150,0.0,0.0, 1, 1,15,0.0, 1, 1,15
151,0.367355700745834,0.35439576645283,25,15,60,0.378609528550512, 6, 6,50
224,32.5812330041875,23.0622322665128,30, 5,60,42.2986971446546,26,11,45
225,31.9802333859753,11.9418322570948, 8,15,60,61.9936114568615,29, 4,30
258,32.36889853524,25.7035811427282,30, 5,60,38.3444250405785,26,19,60
259,31.582751061139,14.4299059640126, 8,16,60,54.7490365443293,28,15,30
260,0.0,0.0, 1, 1,15,0.0, 1, 1,15
291,0.0,0.0, 1, 1,15,0.0, 1, 1,15
322,0.0,0.0, 1, 1,15,0.0, 1, 1,15
323,0.0,0.0, 1, 1,15,0.0, 1, 1,15
324,0.0,0.0, 1, 1,15,0.0, 1, 1,15
325,0.0,0.0, 1, 1,15,0.0, 1, 1,15
408,103312071.48731,0.0, 1, 1,15,166632.37336663, 1, 6,15
461,62089590.5281361,0.0, 1, 1,15,100144.500851833, 1, 6,15
4,181, 6
8,49769377.9289977,7056.14998993358, 1, 8,15,23520.4999664453, 1, 1,15
9,29910931.5297308,4240.6802735913, 1, 8,15,14135.600911971, 1, 1,15
71,33517463.4260019,0.0, 1, 1,15,42054.5337841933, 1,19,15
93,20143682.6278126,0.0, 1, 1,15,25274.3822180835, 1,19,15
125,40516539.4058002,6007.79054059905, 1, 1,15,30038.9527029952, 1,18,15
137,24350061.9541078,3610.62603115479, 1, 1,15,18053.1301557739, 1,18,15
138,670658078.441887,0.0, 1, 1,15,1600209.84891352, 1, 9,30
139,0.0,0.0, 1, 1,15,0.0, 1, 1,15
140,38.5989525306108,29.7018093943154,15, 6,15,49.3950292229194,11,11,45
141,38.0195227454817,31.6884696067533,15, 7,15,45.1581785277227,11,21,15
142,38.1194383062616,29.3043756429432, 1, 5,60,48.9582941271375,10,11,30
143,38.3591954184362,29.5438220342138,15, 5,60,49.1519340180706,10,11,45
144,37.7054933587576,31.487783925533,15, 5,60,45.036129641753,11,19,45
145,37.8625080521196,31.620555243123,15, 6,60,45.0638854085162,11,20,60
146,163227192.268286,9428.23072297014,15, 9,33,89215.6745589403,11,10,60
147,0.0,0.0, 1, 1,15,0.0, 1, 1,15
148,0.36763400939567,0.358183882101095,14,15,60,0.377345059056637, 3,10,37
149,97088279.9236232,4799.65541309096,15, 9,45,53422.0923476399,12, 6,60
150,0.0,0.0, 1, 1,15,0.0, 1, 1,15
151,0.367164585443857,0.356066670381286,15,15,60,0.379732892511945,12, 3,37
224,38.1194383062616,29.3043756429432, 1, 5,60,48.9582941271375,10,11,30
225,33.4019224788752,11.4248697977471, 1,15,15,63.9150953881548,14, 5,60
258,37.7054933587576,31.487783925533,15, 5,60,45.036129641753,11,19,45
259,33.3479986172409,13.7510755926408, 8,16,60,56.8156829105614,14, 5,60
260,0.0,0.0, 1, 1,15,0.0, 1, 1,15
291,0.0,0.0, 1, 1,15,0.0, 1, 1,15
322,0.0,0.0, 1, 1,15,0.0, 1, 1,15
323,0.0,0.0, 1, 1,15,0.0, 1, 1,15
324,0.0,0.0, 1, 1,15,0.0, 1, 1,15
325,0.0,0.0, 1, 1,15,0.0, 1, 1,15
408,99979424.0199775,0.0, 1, 1,15,166632.37336663, 1, 6,15
461,60086700.5110995,0.0, 1, 1,15,100144.500851833, 1, 6,15
4,212, 7
8,51754508.1261656,7056.14998993358, 1,15,15,23520.4999664453, 1, 1,15
9,31103976.2467012,4240.6802735913, 1,15,15,14135.600911971, 1, 1,15
71,34379581.3685779,0.0, 1, 1,15,42054.5337841933, 1,19,15
93,20661807.4632833,0.0, 1, 1,15,25274.3822180835, 1,19,15
125,41742128.6760823,6007.79054059905, 1, 1,15,30038.9527029952, 1,19,15
137,25086629.6644633,3610.62603115479, 1, 1,15,18053.1301557739, 1,19,15
138,518530794.241018,0.0, 1, 1,15,1416503.25799128,12, 9,30
139,0.0,0.0, 1, 1,15,0.0, 1, 1,15
140,27.8458838671956,24.1496753657679,12, 4,30,40.2867015830816, 1,12,45
141,26.1620269229474,24.5804089686677,17,22,15,36.085630419987, 1,14,15
142,26.6596699727664,23.9531844265944, 2,14,15,39.9850562464311, 1,12,30
143,27.252776919981,24.1221028349902,12, 4,30,40.1353731054327, 1,12,30
144,25.6061671811734,23.9487905353491,17,14,15,36.0187331017054, 1,13,60
145,25.8840970520604,24.2942613533051,17,21,60,36.0193047830826, 1,13,60
146,33216958.0979595,0.0, 1,14, 2,54865.7825371364, 1,10,45
147,23277077.9328879,0.0, 1, 1,15,53035.2907128489,30,14,30
148,0.351491671560559,0.341366027000682,20,15,60,0.366720022870713, 1,10, 5
149,14674620.0555957,0.0, 1,14, 2,34368.6217202395, 1, 3,60
150,13884886.5878789,0.0, 1, 1,15,30750.5040010168,30,14,45
151,0.350262071441025,0.341360980462721,20,15,60,0.365231045446595, 1, 1,15
224,26.6596699727664,23.3505839891265, 2,14, 5,39.9850562464311, 1,12,30
225,69.478367762583,33.0106155015235,12,11,45,90.7613884233606, 2,14, 3
258,25.6061671811734,23.5668457332657,26,14, 3,36.0187331017054, 1,13,60
259,73.1204304681282,45.1885402128981, 1,13,60,89.9655584972001, 2,14, 3
260,0.0,0.0, 1, 1,15,0.0, 1, 1,15
291,484906527.950474,0.0, 1, 1,15,2166731.36622208, 1,14,45
322,5.251485220014729E-006,0.0, 1, 1,15,1.592070475453511E-007,14,15,15
323,0.0,0.0, 1, 1,15,0.0, 1, 1,15
324,178316917.866466,0.0, 1, 1,15,1129064.80048475, 1,14,45
325,1.437008165794396E-006,0.0, 1, 1,15,6.712070899084210E-008, 1,15,15
408,103312071.48731,0.0, 1, 1,15,166632.37336663, 1, 6,15
461,62089590.5281361,0.0, 1, 1,15,100144.500851833, 1, 6,15
4,243, 8
8,51378180.1267024,7056.14998993358, 1, 8,15,23520.4999664453, 1, 1,15
9,30877806.6321097,4240.6802735913, 1, 8,15,14135.600911971, 1, 1,15
71,34673963.1050672,0.0, 1, 1,15,42054.5337841933, 1,19,15
93,20838728.1388099,0.0, 1, 1,15,25274.3822180835, 1,19,15
125,41886315.6490567,6007.79054059905, 1, 1,15,30038.9527029952, 1,18,15
137,25173284.6892111,3610.62603115479, 1, 1,15,18053.1301557739, 1,18,15
138,585878205.127864,0.0, 1, 1,15,1395081.99718331,17, 9,15
139,0.0,0.0, 1, 1,15,0.0, 1, 1,15
140,28.1332476632525,23.2990868629388,26, 6,60,38.4386975393621, 7,11,60
141,26.1048943274792,24.5393175318732,26, 7,30,30.0561886286345, 7,14,15
142,26.8138864987213,23.0985323030435,26, 6,60,38.4556958840037, 7,11,45
143,27.4735670809869,23.1988095829912,26, 6,60,38.4436467836071, 7,11,60
144,25.518145579161,23.9533089582608,25,14,15,30.2251535171096, 7,13,60
145,25.8115199533201,24.4018744812309,25,21,60,30.0742505773923, 7,13,60
146,34965265.5115391,0.0, 1,14, 1,53134.6363988362,27,11,60
147,24872443.1647582,0.0, 1, 1,15,52537.5066434738, 7,16,15
148,0.351105007344286,0.338950514878082, 7,15,60,0.362659931992868,28,10,52
149,14371122.2199159,0.0, 1,13,45,20136.891096426,28, 6,60
150,14910009.4752227,0.0, 1, 1,15,31344.3881404418, 7,15,60
151,0.349598120697825,0.338943376801658, 7,15,60,0.35821531558067,28, 7, 7
224,26.8138864987213,23.0985323030435,26, 6,60,38.4556958840037, 7,11,45
225,67.7943834516768,36.1160489230324,28,11,45,92.4981080774541, 2, 5,60
258,25.518145579161,23.5543058745034,21,14, 3,30.2251535171096, 7,13,60
259,72.1741279637672,50.3835832645039,30,13,60,93.3038258698093, 2, 5,60
260,0.0,0.0, 1, 1,15,0.0, 1, 1,15
291,534590201.607918,0.0, 1, 1,15,1831626.73370393, 7,14,45
322,6.785782602491963E-006,0.0, 1, 1,15,1.583885023137555E-007,15,14,45
323,0.0,0.0, 1, 1,15,0.0, 1, 1,15
324,184962811.049691,0.0, 1, 1,15,511952.949506035, 7,14,45
325,1.611475966001308E-006,0.0, 1, 1,15,3.376499080331996E-008, 7,14,45
408,103312071.48731,0.0, 1, 1,15,166632.37336663, 1, 6,15
461,62089590.5281361,0.0, 1, 1,15,100144.500851833, 1, 6,15
4,273, 9
8,49957541.9287292,7056.14998993358, 1, 8,15,23520.4999664453, 1, 1,15
9,30024016.3370266,4240.6802735913, 1, 8,15,14135.600911971, 1, 1,15
71,33370272.5577572,0.0, 1, 1,15,42054.5337841933, 1,19,15
93,20055222.2900493,0.0, 1, 1,15,25274.3822180835, 1,19,15
125,40444445.9193129,6007.79054059905, 1, 1,15,30038.9527029952, 1,18,15
137,24306734.4417339,3610.62603115479, 1, 1,15,18053.1301557739, 1,18,15
138,485068817.801019,0.0, 1, 1,15,1446716.74178194,16, 9,15
139,0.0,0.0, 1, 1,15,0.0, 1, 1,15
140,26.5966400848759,22.4428770728675,30, 7,30,34.2194411052989, 7,14,15
141,25.3907139089136,23.9414031489583,30, 7,60,27.9649964259984, 7,14,15
142,25.5784889170792,22.2050298510669,30, 7,30,34.2936838107947,16,11,30
143,26.0875645009775,22.3239534619672,30, 7,30,34.2522502635421,16,11,30
144,24.9220248766569,23.8140465049701,30, 7,60,28.1080434362659, 7,13,60
145,25.1563693927853,23.8777248269642,30, 7,60,27.9843360378729, 7,13,60
146,54100809.2650204,0.0, 1,14, 2,50487.8837303628,16,11,15
147,2770707.52496149,0.0, 1, 1,15,24943.116548927,20,18,60
148,0.354545057471805,0.342397198644774, 6,15,60,0.36683463053228,16, 9,55
149,28846517.1411555,0.0, 1,14, 1,29491.6394371892,15,24,60
150,1670861.25973005,0.0, 1, 1,15,16247.8950908267,20,18,60
151,0.353778414521667,0.342400597897259, 6,15,60,0.362738195206469,30,24,60
224,25.5784889170792,22.2050298510669,30, 7,30,34.2936838107947,16,11,30
225,60.2018822058932,26.14365705925,16,11,30,87.5365427414511, 9, 6,60
258,24.9220248766569,23.5283333332138,21,14, 3,28.1080434362659, 7,13,60
259,61.5634273382766,34.0005540995708,16,13,60,84.8577678339703, 9, 6,60
260,0.0,0.0, 1, 1,15,0.0, 1, 1,15
291,330327722.48657,0.0, 1, 1,15,1241783.3669912, 7,14,45
322,7.413931283596098E-006,0.0, 1, 1,15,1.360831447527744E-007, 9,14,45
323,0.0,0.0, 1, 1,15,0.0, 1, 1,15
324,110382199.890484,0.0, 1, 1,15,309554.954693177, 7,14,45
325,2.363986842860518E-006,0.0, 1, 1,15,4.133653419557959E-008, 7,14,60
408,99979424.0199775,0.0, 1, 1,15,166632.37336663, 1, 6,15
461,60086700.5110995,0.0, 1, 1,15,100144.500851833, 1, 6,15
4,304,10
8,51566344.126434,7056.14998993358, 1,15,15,23520.4999664453, 1, 1,15
9,30990891.4394054,4240.6802735913, 1,15,15,14135.600911971, 1, 1,15
71,34526772.2368226,0.0, 1, 1,15,42054.5337841933, 1,19,15
93,20750267.8010466,0.0, 1, 1,15,25274.3822180835, 1,19,15
125,41814222.1625695,6007.79054059905, 1, 1,15,30038.9527029952, 1,19,15
137,25129957.1768372,3610.62603115479, 1, 1,15,18053.1301557739, 1,19,15
138,398366999.216274,0.0, 1, 1,15,1207116.81766825, 1, 9,15
139,0.0,0.0, 1, 1,15,0.0, 1, 1,15
140,26.3855802587059,19.0922264874021,24, 7,30,35.3497208777357, 5,11,30
141,26.5731176662018,21.8618499530385,29, 8,60,32.4469926354033, 5,22,15
142,26.1132562162678,19.9999999999999,24, 7,15,35.1530094363163, 5,11,15
143,26.2494182374869,19.5461132437011,24, 7,30,35.2507231015109, 5,11,15
144,26.4322697003949,21.6418589106141,31,10,15,32.5202513584617, 5,19,60
145,26.5026936832983,21.8186310135102,31, 9,45,32.4427644729643, 5,21,15
146,116284530.094135,796.851361607765,14,18,60,66711.0760695087,15,24,60
147,0.0,0.0, 1, 1,15,0.0, 1, 1,15
148,0.362978844114983,0.355325981299787,22,15,60,0.371578578320574,24,10,22
149,72494412.5663008,0.0,14,18,60,43809.0433603594,15,24,60
150,563.971061831628,0.0, 1, 1,15,563.971061831628,14,18,60
151,0.363378568668779,0.35328805355944,27,15,60,0.372084931835995,24, 6,60
224,26.1132562162678,19.9999999999999,24, 7,15,35.1530094363163, 5,11,15
225,37.3606728519586,15.6735707336245,19,15,15,67.6261351661,28,24,30
258,26.4322697003949,21.6418589106141,31,10,15,32.5202513584617, 5,19,60
259,36.5855034080287,17.0270259583633,19,15,45,61.4985933720146,28,24,30
260,3333885.8278714,0.0, 1, 1,15,104096.586718437,24, 7,30
291,0.0,0.0, 1, 1,15,0.0, 1, 1,15
322,3333885.8278715,0.0, 1, 1,15,104096.586718442,24, 7,30
323,0.0,0.0, 1, 1,15,0.0, 1, 1,15
324,0.0,0.0, 1, 1,15,0.0, 1, 1,15
325,0.0,0.0, 1, 1,15,0.0, 1, 1,15
408,103312071.48731,0.0, 1, 1,15,166632.37336663, 1, 6,15
461,62089590.5281361,0.0, 1, 1,15,100144.500851833, 1, 6,15
4,334,11
8,49769377.9289977,7056.14998993358, 1, 9,15,23520.4999664453, 1, 1,15
9,29910931.5297308,4240.6802735913, 1, 9,15,14135.600911971, 1, 1,15
71,33517463.4260019,0.0, 1, 1,15,42054.5337841933, 1,20,15
93,20143682.6278126,0.0, 1, 1,15,25274.3822180835, 1,20,15
125,40516539.4058002,6007.79054059905, 1, 1,15,30038.9527029952, 1,19,15
137,24350061.9541078,3610.62603115479, 1, 1,15,18053.1301557739, 1,19,15
138,257640313.79744,0.0, 1, 1,15,825394.877290114, 6, 9,15
139,0.0,0.0, 1, 1,15,0.0, 1, 1,15
140,20.0780452228872,17.507980404671,27, 7,60,24.6732128132931, 7,15,45
141,20.7636426822676,19.6013162641841,11, 8,45,23.7934523328976, 7,23,60
142,20.5809100942194,19.9999999999998,12, 6,60,24.5865705339776, 7,15,45
143,20.3294776585533,18.7539902023355,27, 7,60,24.6298916736353, 7,15,45
144,20.7340278991581,19.9999999999999,24, 5,60,24.1027603506103, 7,22,60
145,20.7488352907129,19.8006581320921,11, 8,45,23.9399425735287, 7,23,60
146,121263009.511045,8322.59908467194,18,20, 7,81689.9599595042,30,24,60
147,0.0,0.0, 1, 1,15,0.0, 1, 1,15
148,0.365883937039647,0.353722231969, 5,15,60,0.380850341635285,23, 8,60
149,73869224.3777624,4854.55726096915, 7,13,60,48018.7423533207,23, 7,60
150,0.0,0.0, 1, 1,15,0.0, 1, 1,15
151,0.366074763970547,0.352005493114474, 6,15,60,0.380858834012536,23, 8,60
224,20.5809100942194,19.9999999999998,12, 6,60,24.5865705339776, 7,15,45
225,36.1057223980008,15.4197555201521,23,13,30,60.0495428341777,19, 9,15
258,20.7340278991581,19.9999999999999,24, 5,60,24.1027603506103, 7,22,60
259,35.7161280537548,15.3708579093482,23,13,15,60.5440829585594,19,11,30
260,193441164.389227,0.0, 1, 1,15,295216.088323679,27, 6,60
291,0.0,0.0, 1, 1,15,0.0, 1, 1,15
322,193441164.389231,0.0, 1, 1,15,295216.088323691,27, 6,60
323,19318007.9509647,0.0, 1, 1,15,43527.8298794986,23, 6,60
324,0.0,0.0, 1, 1,15,0.0, 1, 1,15
325,19318008.0621332,0.0, 1, 1,15,43527.8298794986,23, 6,60
408,99979424.0199775,0.0, 1, 1,15,166632.37336663, 1, 7,15
461,60086700.5110995,0.0, 1, 1,15,100144.500851833, 1, 7,15
4,365,12
8,51754508.1261656,7056.14998993358, 1, 9,15,23520.4999664453, 1, 1,15
9,31103976.2467012,4240.6802735913, 1, 9,15,14135.600911971, 1, 1,15
71,34379581.3685779,0.0, 1, 1,15,42054.5337841933, 1,20,15
93,20661807.4632833,0.0, 1, 1,15,25274.3822180835, 1,20,15
125,41742128.6760823,6007.79054059905, 1, 1,15,30038.9527029952, 1,19,15
137,25086629.6644633,3610.62603115479, 1, 1,15,18053.1301557739, 1,19,15
138,250640318.893522,0.0, 1, 1,15,702919.088519216,31, 9,30
139,0.0,0.0, 1, 1,15,0.0, 1, 1,15
140,18.7576452469638,17.1105825168791,16, 8,15,20.8192062726467,13,10,45
141,19.8578814611982,19.4356807168224,17, 8,60,20.2493368046464,28,23,60
142,20.0013851049396,19.9999999999998,16, 1,60,20.3195260068481,13,10,45
143,19.3795151759517,18.5552912584395,16, 8,15,20.5693661397474,13,10,45
144,20.0092960188231,19.9999999999999,31, 6,45,20.4455628071901,28,20,60
145,19.9335887400106,19.7178403584112,17, 8,60,20.3181639555323,28,22,60
146,195780523.62863,28924.7954610654,11,15,60,111130.848630478,31, 9,60
147,0.0,0.0, 1, 1,15,0.0, 1, 1,15
148,0.376198587802684,0.361428431415899,29,15,60,0.394353664315498,31,24,60
149,117876748.630349,17468.9876408365,11,15,60,66583.3955199453,31, 9,60
150,0.0,0.0, 1, 1,15,0.0, 1, 1,15
151,0.376207280638152,0.361428977656463,29,15,60,0.394350431551591,31,24,60
224,20.0013851049396,19.9999999999998,16, 1,60,20.3195260068481,13,10,45
225,20.188311443282,7.75739510146324,16,19,60,40.2494090677392,25, 4,30
258,20.0092960188231,19.9999999999999,31, 6,45,20.4455628071901,28,20,60
259,20.2644591085516,7.39118005307211,16,19,60,40.8557064529061,25, 4,15
260,476648941.751634,0.0, 2,10,15,384409.195057634,18, 6,60
291,0.0,0.0, 1, 1,15,0.0, 1, 1,15
322,476648941.751644,0.0, 2,10,15,384409.195057641,18, 6,60
323,81208025.4626651,0.0, 6,19,15,71210.7668484914,17, 8,45
324,0.0,0.0, 1, 1,15,0.0, 1, 1,15
325,81208025.4626676,0.0, 6,19,15,71210.7668484936,17, 8,45
408,103312071.48731,0.0, 1, 1,15,166632.37336663, 1, 7,15
461,62089590.5281361,0.0, 1, 1,15,100144.500851833, 1, 7,15
End of Data
 Number of Records Written=         384
