Program Version,EnergyPlus, Version 8.4.0-09f5359d8a, YMD=2023.08.02 14:39
1,5,Environment Title[],Latitude[deg],Longitude[deg],Time Zone[],Elevation[m]
2,6,Day of Simulation[],Month[],Day of Month[],DST Indicator[1=yes 0=no],Hour[],StartMinute[],EndMinute[],DayType
3,3,Cumulative Day of Simulation[],Month[],Day of Month[],DST Indicator[1=yes 0=no],DayType  ! When Daily Report Variables Requested
4,2,Cumulative Days of Simulation[],Month[]  ! When Monthly Report Variables Requested
5,1,Cumulative Days of Simulation[] ! When Run Period Report Variables Requested
8,9,PERIM,Zone People Total Heating Energy [J] !Monthly  [Value,Min,Day,Hour,Minute,Max,Day,Hour,Minute]
9,9,CORE,Zone People Total Heating Energy [J] !Monthly  [Value,Min,Day,Hour,Minute,Max,Day,Hour,Minute]
71,9,PERIM,Zone Lights Electric Energy [J] !Monthly  [Value,Min,Day,Hour,Minute,Max,Day,Hour,Minute]
93,9,CORE,Zone Lights Electric Energy [J] !Monthly  [Value,Min,Day,Hour,Minute,Max,Day,Hour,Minute]
125,9,PERIM,Zone Electric Equipment Electric Energy [J] !Monthly  [Value,Min,Day,Hour,Minute,Max,Day,Hour,Minute]
137,9,CORE,Zone Electric Equipment Electric Energy [J] !Monthly  [Value,Min,Day,Hour,Minute,Max,Day,Hour,Minute]
138,9,PERIM,Zone Windows Total Transmitted Solar Radiation Energy [J] !Monthly  [Value,Min,Day,Hour,Minute,Max,Day,Hour,Minute]
139,9,CORE,Zone Windows Total Transmitted Solar Radiation Energy [J] !Monthly  [Value,Min,Day,Hour,Minute,Max,Day,Hour,Minute]
140,9,PERIM,Zone Mean Radiant Temperature [C] !Monthly [Value,Min,Day,Hour,Minute,Max,Day,Hour,Minute]
141,9,CORE,Zone Mean Radiant Temperature [C] !Monthly [Value,Min,Day,Hour,Minute,Max,Day,Hour,Minute]
142,9,PERIM,Zone Mean Air Temperature [C] !Monthly [Value,Min,Day,Hour,Minute,Max,Day,Hour,Minute]
143,9,PERIM,Zone Operative Temperature [C] !Monthly [Value,Min,Day,Hour,Minute,Max,Day,Hour,Minute]
144,9,CORE,Zone Mean Air Temperature [C] !Monthly [Value,Min,Day,Hour,Minute,Max,Day,Hour,Minute]
145,9,CORE,Zone Operative Temperature [C] !Monthly [Value,Min,Day,Hour,Minute,Max,Day,Hour,Minute]
146,9,PERIM,Zone Infiltration Total Heat Loss Energy [J] !Monthly  [Value,Min,Day,Hour,Minute,Max,Day,Hour,Minute]
147,9,PERIM,Zone Infiltration Total Heat Gain Energy [J] !Monthly  [Value,Min,Day,Hour,Minute,Max,Day,Hour,Minute]
148,9,PERIM,Zone Infiltration Air Change Rate [ach] !Monthly [Value,Min,Day,Hour,Minute,Max,Day,Hour,Minute]
149,9,CORE,Zone Infiltration Total Heat Loss Energy [J] !Monthly  [Value,Min,Day,Hour,Minute,Max,Day,Hour,Minute]
150,9,CORE,Zone Infiltration Total Heat Gain Energy [J] !Monthly  [Value,Min,Day,Hour,Minute,Max,Day,Hour,Minute]
151,9,CORE,Zone Infiltration Air Change Rate [ach] !Monthly [Value,Min,Day,Hour,Minute,Max,Day,Hour,Minute]
224,9,PERIM,Zone Air Temperature [C] !Monthly [Value,Min,Day,Hour,Minute,Max,Day,Hour,Minute]
225,9,PERIM,Zone Air Relative Humidity [%] !Monthly [Value,Min,Day,Hour,Minute,Max,Day,Hour,Minute]
258,9,CORE,Zone Air Temperature [C] !Monthly [Value,Min,Day,Hour,Minute,Max,Day,Hour,Minute]
259,9,CORE,Zone Air Relative Humidity [%] !Monthly [Value,Min,Day,Hour,Minute,Max,Day,Hour,Minute]
260,9,PERIM IDEAL LOADS AIR,Zone Ideal Loads Supply Air Total Heating Energy [J] !Monthly  [Value,Min,Day,Hour,Minute,Max,Day,Hour,Minute]
291,9,PERIM IDEAL LOADS AIR,Zone Ideal Loads Supply Air Total Cooling Energy [J] !Monthly  [Value,Min,Day,Hour,Minute,Max,Day,Hour,Minute]
322,9,PERIM IDEAL LOADS AIR,Zone Ideal Loads Zone Total Heating Energy [J] !Monthly  [Value,Min,Day,Hour,Minute,Max,Day,Hour,Minute]
323,9,CORE IDEAL LOADS AIR,Zone Ideal Loads Supply Air Total Heating Energy [J] !Monthly  [Value,Min,Day,Hour,Minute,Max,Day,Hour,Minute]
324,9,CORE IDEAL LOADS AIR,Zone Ideal Loads Supply Air Total Cooling Energy [J] !Monthly  [Value,Min,Day,Hour,Minute,Max,Day,Hour,Minute]
325,9,CORE IDEAL LOADS AIR,Zone Ideal Loads Zone Total Heating Energy [J] !Monthly  [Value,Min,Day,Hour,Minute,Max,Day,Hour,Minute]
408,9,DHW PERIM,Water Use Equipment Heating Energy [J] !Monthly  [Value,Min,Day,Hour,Minute,Max,Day,Hour,Minute]
461,9,DHW CORE,Water Use Equipment Heating Energy [J] !Monthly  [Value,Min,Day,Hour,Minute,Max,Day,Hour,Minute]
End of Data Dictionary
1,ARCHSIM,  37.57, 126.97,   9.00,  87.10
4,31, 1
8,51566344.1332033,7056.14999085974, 1,16,15,23520.4999695325, 1, 1,15
9,30990891.4386605,4240.68027348943, 1,16,15,14135.6009116314, 1, 1,15
71,34526772.2413545,0.0, 1, 1,15,42054.5337897132, 1,20,15
93,20750267.8005481,0.0, 1, 1,15,25274.3822174764, 1,20,15
125,41814222.1680574,6007.79054138761, 1, 1,15,30038.952706938, 1,20,15
137,25129957.1762339,3610.62603106806, 1, 1,15,18053.1301553403, 1,20,15
138,94740653.095873,0.0, 1, 1,15,152542.271869056,30,13,30
139,0.0,0.0, 1, 1,15,0.0, 1, 1,15
140,18.1138370295339,17.1396179254711,14, 8,45,19.3832072115173, 8,14,45
141,19.6554248154394,19.4156364767692,15, 8,60,19.9478842477997, 8,23,60
142,20.,19.9999999999998,14, 2,15,20.0000000000002,15, 2,45
143,19.056918514767,18.5698089627355,14, 8,45,19.6916036057586, 8,14,45
144,20.0003474372906,19.9999999999999,23, 8,30,20.0787579997117, 6,20,45
145,19.827886126365,19.7078182383846,15, 8,60,19.9871250721462, 8,21,60
146,212374622.455005,25570.7824897122, 6,15,60,109204.331233602,23, 6,60
147,0.0,0.0, 1, 1,15,0.0, 1, 1,15
148,0.378596671661225,0.361467444487169, 6,15,60,0.393992508854887,23, 6,60
149,127565567.302822,15324.8604708981, 6,15,60,65700.501908746,23, 6,60
150,0.0,0.0, 1, 1,15,0.0, 1, 1,15
151,0.378597598803526,0.361468315529495, 6,15,60,0.393991068398048,23, 6,60
224,20.,19.9999999999998,14, 2,15,20.0000000000002,15, 2,45
225,17.6792999298967,6.90959230498999,14,19,60,34.9071407073263, 2,22,45
258,20.0003474372906,19.9999999999999,23, 8,30,20.0787579997117, 6,20,45
259,17.6416511886993,6.27036756756018,14,19,60,35.2861522606709, 2,22,30
260,655753155.149173,53265.6561022851, 8,14,45,382056.195520353,23, 6,60
291,0.0,0.0, 1, 1,15,0.0, 1, 1,15
322,655753155.149185,53265.6561022878, 8,14,45,382056.195520366,23, 6,60
323,112487097.915656,0.0, 2,20,15,75325.9302119733,23, 6,60
324,0.0,0.0, 1, 1,15,0.0, 1, 1,15
325,112487097.915659,0.0, 2,20,15,75325.930211975,23, 6,60
408,103312071.50087,0.0, 1, 1,15,166632.373388501, 1, 7,15
461,62089590.5266451,0.0, 1, 1,15,100144.500849427, 1, 7,15
4,59, 2
8,46551773.539699,7056.14999085974, 1, 9,15,23520.4999695325, 1, 1,15
9,27977181.3243007,4240.68027348943, 1, 9,15,14135.6009116314, 1, 1,15
71,31204464.0719672,0.0, 1, 1,15,42054.5337897132, 1,20,15
93,18753591.6053675,0.0, 1, 1,15,25274.3822174764, 1,20,15
125,37776986.924245,6007.79054138761, 1, 1,15,30038.952706938, 1,19,15
137,22703616.4833561,3610.62603106806, 1, 1,15,18053.1301553403, 1,19,15
138,112402306.826146,0.0, 1, 1,15,173912.761215007,28,13,30
139,0.0,0.0, 1, 1,15,0.0, 1, 1,15
140,18.4578507922093,17.3632089473307, 8, 6,60,20.1219731256976,28,15,60
141,19.7534832663389,19.5024768446073,11, 8,60,20.2449727768148,27,23,60
142,20.,19.9999999999998, 9, 9,30,20.0000000000001,17, 6,15
143,19.2289253961047,18.6816044736654, 8, 6,60,20.0609865628488,28,15,60
144,20.0129130603969,19.9999999999999, 8,11,15,20.4837104845835,23,20,45
145,19.8831981633679,19.7512384223036,11, 8,60,20.3180657181635,23,20,60
146,167452727.040111,14204.1451668615,23,19,30,100320.400797654, 8, 6,60
147,0.0,0.0, 1, 1,15,0.0, 1, 1,15
148,0.374768183526031,0.35798866551101,23,15,60,0.390244559184541, 8, 6,60
149,100751796.942396,9019.20935288747,23,18,60,60245.6086917965, 8, 6,60
150,0.0,0.0, 1, 1,15,0.0, 1, 1,15
151,0.374783907220156,0.357992509988624,23,15,60,0.390245506630564, 8, 6,60
224,20.,19.9999999999998, 9, 9,30,20.0000000000001,17, 6,15
225,18.4616860231697,6.52089583464924, 9,17,60,37.9330996759864, 3,22,15
258,20.0129130603969,19.9999999999999, 8,11,15,20.4837104845835,23,20,45
259,18.4747577944636,6.132391749978, 9,17,60,38.3640404581071, 3,21,60
260,470212284.634067,9528.92033130387,23,19,15,346202.742999823, 8, 6,60
291,0.0,0.0, 1, 1,15,0.0, 1, 1,15
322,470212284.634076,9528.92033130447,23,19,15,346202.742999825, 8, 6,60
323,77594253.1366649,0.0, 6,19,15,66220.0149995454, 8, 6,60
324,0.0,0.0, 1, 1,15,0.0, 1, 1,15
325,77594253.1366674,0.0, 6,19,15,66220.0149995461, 8, 6,60
408,93314129.0975602,0.0, 1, 1,15,166632.373388501, 1, 7,15
461,56080920.4756794,0.0, 1, 1,15,100144.500849427, 1, 7,15
4,90, 3
8,51378180.1334471,7056.14999085974, 1, 9,15,23520.4999695325, 1, 1,15
9,30877806.6313674,4240.68027348943, 1, 9,15,14135.6009116314, 1, 1,15
71,34673963.1096185,0.0, 1, 1,15,42054.5337897132, 1,20,15
93,20838728.1383093,0.0, 1, 1,15,25274.3822174764, 1,20,15
125,41886315.6545541,6007.79054138761, 1, 1,15,30038.952706938, 1,19,15
137,25173284.6886067,3610.62603106806, 1, 1,15,18053.1301553403, 1,19,15
138,167646623.357342,0.0, 1, 1,15,201087.260395231,28,13,30
139,0.0,0.0, 1, 1,15,0.0, 1, 1,15
140,19.1687902616898,17.6502438026393, 6, 7,30,21.2055213843454,19,16,45
141,20.0312381348865,19.5781557710887, 8, 7,60,20.9371795245084,19,23,60
142,20.0393488794787,19.9999999999998, 2, 6,45,21.3346324199706,30,18,30
143,19.6040695705843,18.8251219013196, 6, 7,30,21.2311179874068,19,15,60
144,20.103537675925,19.9999999999999, 8, 1,15,21.2212733794471,19,23,60
145,20.0673879054057,19.7890778855443, 8, 7,60,21.0792264519778,19,23,60
146,135655804.163882,2083.97662934816,19,19,60,81951.2577819464, 8, 6,60
147,0.0,0.0, 1, 1,15,0.0, 1, 1,15
148,0.367597661267404,0.353433010338625,19,15,60,0.383260933200469, 8, 6,60
149,81986584.8278949,1137.45365097589,19,19,60,49532.4088021108, 8, 6,60
150,0.0,0.0, 1, 1,15,0.0, 1, 1,15
151,0.367677224252717,0.352533313783608,19,15,60,0.383255103487111, 8, 6,60
224,20.0393488794787,19.9999999999998, 2, 6,45,21.3346324199706,30,18,30
225,23.5352218296893,8.80350082331009, 7,17,60,41.5545618849333,31,19,30
258,20.103537675925,19.9999999999999, 8, 1,15,21.2212733794471,19,23,60
259,23.4963000293918,8.48519913252017, 7,17,60,40.5459013005958,31,17,60
260,283408303.812336,0.0,11,14,30,283879.374131469, 6, 6,60
291,0.0,0.0, 1, 1,15,0.0, 1, 1,15
322,283408303.812343,0.0,11,14,30,283879.374131477, 6, 6,60
323,36312848.4294469,0.0, 1,20,15,52168.2340444643, 8, 6,60
324,0.0,0.0, 1, 1,15,0.0, 1, 1,15
325,36312848.4294481,0.0, 1,20,15,52168.2340444672, 8, 6,60
408,103312071.50087,0.0, 1, 1,15,166632.373388501, 1, 7,15
461,62089590.5266451,0.0, 1, 1,15,100144.500849427, 1, 7,15
4,120, 4
8,50145705.9350435,7056.14999085974, 1,15,15,23520.4999695325, 1, 1,15
9,30137101.143598,4240.68027348943, 1,15,15,14135.6009116314, 1, 1,15
71,33223081.6938734,0.0, 1, 1,15,42054.5337897132, 1,19,15
93,19966761.9518064,0.0, 1, 1,15,25274.3822174764, 1,19,15
125,40372352.4381244,6007.79054138761, 1, 1,15,30038.952706938, 1,19,15
137,24263406.9287775,3610.62603106806, 1, 1,15,18053.1301553403, 1,19,15
138,183483879.158189,0.0, 1, 1,15,295925.075381115,29,18,45
139,0.0,0.0, 1, 1,15,0.0, 1, 1,15
140,21.0868922738455,18.0118944796427, 1, 7,15,25.9171730342211,11,18,45
141,21.6342792571155,19.766650134147, 1, 8,45,25.3158697628942,12,22,60
142,21.3178550610247,19.9999999999999, 1, 6,45,26.4050155704654,11,18,45
143,21.2023736674351,19.0059472398213, 1, 7,15,26.1610943023433,11,18,45
144,21.6408460905661,20., 2, 5,30,25.5572068524193,12,21,60
145,21.6375626738408,19.8833250670735, 1, 8,45,25.425650408761,12,22,60
146,89876971.3400445,0.0, 7,19,60,66416.8043257963, 1, 1,60
147,126468.202154186,0.0, 1, 1,15,16587.4706936933,19,19,60
148,0.360940877435079,0.348111332527414,19,12,60,0.372355119948788, 1, 4,60
149,55954106.2223825,0.0, 7,19,45,38975.4407955347, 1, 1,60
150,148506.454168682,0.0, 1, 1,15,12975.0230821258,19,19,60
151,0.361341166976828,0.347055026895253,19,12,60,0.372375154791262, 1, 4,60
224,21.3178550610247,19.9999999999999, 1, 6,45,26.4050155704654,11,18,45
225,36.1316940885846,17.6527562445022,18,17,30,66.9309530425581,20,23,45
258,21.6408460905661,20., 2, 5,30,25.5572068524193,12,21,60
259,35.3250297055412,18.5309889095811,18,18,15,60.1040018507621,25, 1,45
260,79083827.2908946,0.0, 2,13,60,225579.454419213, 1, 7,30
291,0.0,0.0, 1, 1,15,0.0, 1, 1,15
322,79083827.290897,0.0, 2,13,60,225579.454419216, 1, 7,30
323,5455925.50072663,0.0, 1,19,15,28593.5212321305, 1, 7,60
324,0.0,0.0, 1, 1,15,0.0, 1, 1,15
325,5455925.50072683,0.0, 1,19,15,28593.5212321314, 1, 7,60
408,99979424.0331002,0.0, 1, 1,15,166632.373388501, 1, 6,15
461,60086700.5096565,0.0, 1, 1,15,100144.500849427, 1, 6,15
4,151, 5
8,51378180.1334471,7056.14999085974, 1, 8,15,23520.4999695325, 1, 1,15
9,30877806.6313674,4240.68027348943, 1, 8,15,14135.6009116314, 1, 1,15
71,34673963.1096185,0.0, 1, 1,15,42054.5337897132, 1,19,15
93,20838728.1383093,0.0, 1, 1,15,25274.3822174764, 1,19,15
125,41886315.6545541,6007.79054138761, 1, 1,15,30038.952706938, 1,18,15
137,25173284.6886067,3610.62603106806, 1, 1,15,18053.1301553403, 1,18,15
138,214133283.25741,0.0, 1, 1,15,412929.090645569,30,17,45
139,0.0,0.0, 1, 1,15,0.0, 1, 1,15
140,24.796524327582,18.9204581344645, 3, 7,30,31.6558298336036,26,17,45
141,25.226894869147,20.8629809625565, 4,11,60,30.8332740934441,26,22,60
142,24.7141418430549,18.6833144475897, 3, 6,60,31.8448504892157,25,18,30
143,24.7553330853185,18.8151886764651, 3, 7,15,31.6276973634368,26,17,45
144,25.2457252206259,20.7389623543054, 4, 9,45,31.0781044209593,26,21,60
145,25.2363100448865,20.8041346328505, 4,11,30,30.9519475215173,26,22,60
146,79933702.868701,0.0, 7,20,60,60918.2609278754,17, 5,60
147,127492.86027223,0.0, 1, 1,15,12240.7994217741,11,18,60
148,0.358143756556271,0.348416271416447,23,15,60,0.364880054979268, 6, 6,60
149,51537265.8180188,0.0, 7,15,60,39410.3670116874,17, 5,60
150,194025.961628743,0.0, 1, 1,15,10420.8624913137,11,18,60
151,0.358795200729008,0.346211498834993,23,15,60,0.367315351504787, 6, 6,60
224,24.7141418430549,18.6833144475897, 3, 6,60,31.8448504892157,25,18,30
225,44.2515426951397,21.3529394656637, 8,18,15,70.2515202777529,28,15,15
258,25.2457252206259,20.7389623543054, 4, 9,45,31.0781044209593,26,21,60
259,42.7064619285622,23.7932509553495,17,15,60,65.3074447152576,28,15,45
260,0.0,0.0, 1, 1,15,0.0, 1, 1,15
291,0.0,0.0, 1, 1,15,0.0, 1, 1,15
322,0.0,0.0, 1, 1,15,0.0, 1, 1,15
323,0.0,0.0, 1, 1,15,0.0, 1, 1,15
324,0.0,0.0, 1, 1,15,0.0, 1, 1,15
325,0.0,0.0, 1, 1,15,0.0, 1, 1,15
408,103312071.50087,0.0, 1, 1,15,166632.373388501, 1, 6,15
461,62089590.5266451,0.0, 1, 1,15,100144.500849427, 1, 6,15
4,181, 6
8,49769377.9355311,7056.14999085974, 1, 8,15,23520.4999695325, 1, 1,15
9,29910931.5290118,4240.68027348943, 1, 8,15,14135.6009116314, 1, 1,15
71,33517463.4304014,0.0, 1, 1,15,42054.5337897132, 1,19,15
93,20143682.6273287,0.0, 1, 1,15,25274.3822174764, 1,19,15
125,40516539.4111176,6007.79054138761, 1, 1,15,30038.952706938, 1,18,15
137,24350061.9535232,3610.62603106806, 1, 1,15,18053.1301553403, 1,18,15
138,218775356.932057,0.0, 1, 1,15,416635.97168126, 1,17,45
139,0.0,0.0, 1, 1,15,0.0, 1, 1,15
140,29.7270988254399,24.8373303876297, 1, 6,15,34.8446718773782,10,17,45
141,29.9840545985668,26.108957541495, 1,11,30,33.6139401686533,11,22,60
142,29.6342176140382,24.4554089479891, 1, 5,60,34.9032079756766,10,19,30
143,29.6806582197391,24.6730275109853, 1, 5,60,34.7876165441613,10,17,45
144,29.9911175536044,25.9683600682802, 1, 9,45,33.8224260757977,11,22,60
145,29.9875860760856,26.0516440872464, 1, 9,45,33.7181831222255,11,22,60
146,84170507.0497313,0.0, 1,15,45,51998.8383081985, 1, 4,60
147,8926.44459774038,0.0, 1, 1,15,7015.22044198695, 1,15,60
148,0.35761185384235,0.350439996223318,15,15,60,0.364736035239909, 1, 3,60
149,52893817.821695,0.0, 1,15,45,35109.0804397696,12, 7,15
150,11330.2976831764,0.0, 1, 1,15,6199.10449931662, 1,15,60
151,0.358041487858953,0.349426060444894,25,15,60,0.367606047632352,12, 6,60
224,29.6342176140382,24.4554089479891, 1, 5,60,34.9032079756766,10,19,30
225,48.2853811176502,20.3491078407628, 1,15,15,75.1216587508506,14, 5,60
258,29.9911175536044,25.9683600682802, 1, 9,45,33.8224260757977,11,22,60
259,47.118880001457,21.6176768427796, 1,15,15,70.0980570298763,14, 5,60
260,0.0,0.0, 1, 1,15,0.0, 1, 1,15
291,0.0,0.0, 1, 1,15,0.0, 1, 1,15
322,0.0,0.0, 1, 1,15,0.0, 1, 1,15
323,0.0,0.0, 1, 1,15,0.0, 1, 1,15
324,0.0,0.0, 1, 1,15,0.0, 1, 1,15
325,0.0,0.0, 1, 1,15,0.0, 1, 1,15
408,99979424.0331002,0.0, 1, 1,15,166632.373388501, 1, 6,15
461,60086700.5096565,0.0, 1, 1,15,100144.500849427, 1, 6,15
4,212, 7
8,51754508.1329596,7056.14999085974, 1,15,15,23520.4999695325, 1, 1,15
9,31103976.2459535,4240.68027348943, 1,15,15,14135.6009116314, 1, 1,15
71,34379581.3730905,0.0, 1, 1,15,42054.5337897132, 1,19,15
93,20661807.462787,0.0, 1, 1,15,25274.3822174764, 1,19,15
125,41742128.6815608,6007.79054138761, 1, 1,15,30038.952706938, 1,19,15
137,25086629.6638611,3610.62603106806, 1, 1,15,18053.1301553403, 1,19,15
138,180582312.398596,0.0, 1, 1,15,354490.333056719, 6,17,45
139,0.0,0.0, 1, 1,15,0.0, 1, 1,15
140,25.8988081840581,24.0261200392296,12, 6,30,30.301496693842, 1,14,15
141,25.3949849422809,24.4628201959174,17,22,15,29.9094959695592, 1, 1,15
142,25.3409626111082,23.9442549139851,17,14,15,30.4051687999354, 1,13,60
143,25.6198853975832,24.0186066649385,12, 4,30,30.303068594607, 1,13,60
144,25.1486397429023,23.9614383291367,18,14,15,29.7438905892732, 1, 1,15
145,25.2718123425916,24.2332949491466,17,21,60,29.8266932794162, 1, 1,15
146,21439120.0453747,0.0, 1,14, 1,30322.8537523406, 1, 1,15
147,22545334.2753115,0.0, 1, 1,15,50269.4747350093,30,14,45
148,0.349873967431497,0.341327284294271,20,15,60,0.356931155981805, 1, 2,15
149,12107136.894751,0.0, 1,14, 1,21625.9156355302, 1, 3,60
150,13469982.1778625,0.0, 1, 1,15,29459.2822242208,31,15,60
151,0.349648980198565,0.341320934766725,20,15,60,0.35873519555822, 1, 3,60
224,25.3409626111082,23.4354853152042, 1,14, 3,30.4051687999354, 1,13,60
225,74.171441994316,53.6075302319443,12,13,60,91.8116910542747, 2,14, 2
258,25.1486397429023,23.5892909014717, 1,14, 3,29.7438905892732, 1, 1,15
259,75.0948332937601,57.7708226129294, 6,22,22,91.8823794445216, 2,14, 2
260,0.0,0.0, 1, 1,15,0.0, 1, 1,15
291,255757591.560108,0.0, 1, 1,15,719356.456682325, 1,14,45
322,1.395664384062911E-006,0.0, 1, 1,15,4.317826096666977E-008, 7,17,30
323,0.0,0.0, 1, 1,15,0.0, 1, 1,15
324,106134101.858359,0.0, 1, 1,15,429254.553194409, 1,14,45
325,4.584420842945747E-007,0.0, 1, 1,15,2.353317540837452E-008, 1,15,60
408,103312071.50087,0.0, 1, 1,15,166632.373388501, 1, 6,15
461,62089590.5266451,0.0, 1, 1,15,100144.500849427, 1, 6,15
4,243, 8
8,51378180.1334471,7056.14999085974, 1, 8,15,23520.4999695325, 1, 1,15
9,30877806.6313674,4240.68027348943, 1, 8,15,14135.6009116314, 1, 1,15
71,34673963.1096185,0.0, 1, 1,15,42054.5337897132, 1,19,15
93,20838728.1383093,0.0, 1, 1,15,25274.3822174764, 1,19,15
125,41886315.6545541,6007.79054138761, 1, 1,15,30038.952706938, 1,18,15
137,25173284.6886067,3610.62603106806, 1, 1,15,18053.1301553403, 1,18,15
138,191637758.930136,0.0, 1, 1,15,284539.837312463, 7,17,60
139,0.0,0.0, 1, 1,15,0.0, 1, 1,15
140,26.0017196320122,23.062910623673,26, 7,30,29.6835190266905, 7,14,15
141,25.3693159782176,24.2960720020512,26, 8,30,27.0247245128536, 7,14,15
142,25.3908438545445,22.9056877055333,26, 7,15,29.9133659075919, 7,13,60
143,25.6962817432783,22.9866244621798,26, 7,30,29.7408501898738, 7,13,60
144,25.1155362999156,23.9256275894717,25,14,15,27.3365829277983, 7,13,60
145,25.2424261390666,24.2479236989076,26,21,60,27.1528136796781, 7,13,60
146,22275080.6108819,0.0, 1,14, 1,29776.2091781171,28, 6,60
147,24568741.9637514,0.0, 1, 1,15,52042.8588569658, 7,15,60
148,0.349364046168215,0.338909815962811, 7,15,60,0.356760198648705,25,22,22
149,12389820.8376327,0.0, 1,12,45,19568.5397142769,26, 6,60
150,14810626.8794311,0.0, 1, 1,15,30917.9924849915, 7,15,60
151,0.349043254924144,0.338902539381687, 7,15,60,0.357548676760324,28, 6,60
224,25.3908438545445,22.9056877055333,26, 7,15,29.9133659075919, 7,13,60
225,72.6618890358976,51.3711339217466,30,13,60,93.643132387355, 2, 5,60
258,25.1155362999156,23.5843506264518, 7,14, 3,27.3365829277983, 7,13,60
259,73.9740296915127,55.6509187463329,27,18,60,94.5129152878526, 2, 5,60
260,0.0,0.0, 1, 1,15,0.0, 1, 1,15
291,274383539.174453,0.0, 1, 1,15,680994.185446988, 7,14, 1
322,1.748416096347683E-006,0.0, 1, 1,15,5.177298589842394E-008, 6,14,45
323,0.0,0.0, 1, 1,15,0.0, 1, 1,15
324,108213267.370094,0.0, 1, 1,15,263823.494155733, 7,14, 1
325,4.764067451645815E-007,0.0, 1, 1,15,2.097522155963816E-008,12,15,30
408,103312071.50087,0.0, 1, 1,15,166632.373388501, 1, 6,15
461,62089590.5266451,0.0, 1, 1,15,100144.500849427, 1, 6,15
4,273, 9
8,49957541.9352873,7056.14999085974, 1, 8,15,23520.4999695325, 1, 1,15
9,30024016.3363049,4240.68027348943, 1, 8,15,14135.6009116314, 1, 1,15
71,33370272.5621374,0.0, 1, 1,15,42054.5337897132, 1,19,15
93,20055222.2895675,0.0, 1, 1,15,25274.3822174764, 1,19,15
125,40444445.924621,6007.79054138761, 1, 1,15,30038.952706938, 1,18,15
137,24306734.4411503,3610.62603106806, 1, 1,15,18053.1301553403, 1,18,15
138,151620262.805566,0.0, 1, 1,15,192385.389740205, 7,13,30
139,0.0,0.0, 1, 1,15,0.0, 1, 1,15
140,24.6689702059116,22.3402792870621,30, 7,30,27.601816665203, 7,14,15
141,24.670121635868,23.7470232007737,30, 8,60,25.7719215484677, 8,14,15
142,24.3001974768233,22.1122399438232,30, 7,30,27.7656440589658, 7,13,60
143,24.4845838413674,22.2262596154427,30, 7,30,27.6249555944273, 7,13,60
144,24.5292639613316,23.6609410257306,30, 7,60,26.0021859141207, 8,13,60
145,24.5996927985998,23.7201791152883,30, 7,60,25.8673676685442, 8,13,60
146,42149405.3368994,0.0, 1,14, 1,46788.2941263674,15,24,60
147,2772301.94968379,0.0, 1, 1,15,28192.7583195622,20,18,60
148,0.352972388152386,0.342368022044322, 6,15,60,0.360931382275279,30,24,60
149,26499939.3302062,0.0, 1,12,45,28670.991589846,15,24,60
150,1666217.31669741,0.0, 1, 1,15,17341.6144058799,20,18,60
151,0.353248836967989,0.342371448000762, 6,15,60,0.362127512204389,30,24,60
224,24.3001974768233,22.1122399438232,30, 7,30,27.7656440589658, 7,13,60
225,63.6919410369911,36.3728357994122,16,13,60,87.9826269096564, 9, 6,60
258,24.5292639613316,23.6494859427464, 9,14, 3,26.0021859141207, 8,13,60
259,62.7945788669118,37.7941942112319,16,22,30,86.0821631403657, 9, 6,60
260,0.0,0.0, 1, 1,15,0.0, 1, 1,15
291,125077734.233778,0.0, 1, 1,15,394232.208860798, 8,14,45
322,2.187940568899276E-006,0.0, 1, 1,15,2.813749233609997E-008, 7,14,60
323,0.0,0.0, 1, 1,15,0.0, 1, 1,15
324,48935872.5519566,0.0, 1, 1,15,151063.054210714, 8,14,45
325,1.062382604507687E-006,0.0, 1, 1,15,9.003997547551990E-009,10,20,15
408,99979424.0331002,0.0, 1, 1,15,166632.373388501, 1, 6,15
461,60086700.5096565,0.0, 1, 1,15,100144.500849427, 1, 6,15
4,304,10
8,51566344.1332033,7056.14999085974, 1,15,15,23520.4999695325, 1, 1,15
9,30990891.4386605,4240.68027348943, 1,15,15,14135.6009116314, 1, 1,15
71,34526772.2413545,0.0, 1, 1,15,42054.5337897132, 1,19,15
93,20750267.8005481,0.0, 1, 1,15,25274.3822174764, 1,19,15
125,41814222.1680574,6007.79054138761, 1, 1,15,30038.952706938, 1,19,15
137,25129957.1762339,3610.62603106806, 1, 1,15,18053.1301553403, 1,19,15
138,125667341.114214,0.0, 1, 1,15,177963.676382138, 1,13,30
139,0.0,0.0, 1, 1,15,0.0, 1, 1,15
140,21.8817941391836,18.4159840701784,24, 7,30,25.8671908787851, 7,16,30
141,22.5963685601107,20.0480301447245,31,11,30,25.7968381858954, 7,23,15
142,22.018904008223,19.9999999999999,19, 4,30,26.1240634997693, 8,19,45
143,21.9503490737033,19.2079920350892,24, 7,30,25.8501479055798, 7,16,15
144,22.6456969239667,20.,31,10,30,26.1488632727625, 7,22,60
145,22.6210327420387,20.0240150723622,31,11,30,25.9726895006748, 7,22,60
146,74618605.9544381,0.0,14,18,30,55552.5826353363,24, 3,60
147,61931.9006180014,0.0, 1, 1,15,15593.1647866601,14,18,60
148,0.358018489695281,0.349370769357709,22,15,60,0.36927204281244,24, 6,60
149,48701610.1669798,0.0,14,18,30,34104.4347286325,15,24,60
150,39683.0843266353,0.0, 1, 1,15,9717.57862672232,14,18,60
151,0.358779788574613,0.348481417222573,22,15,60,0.369591187258681,24, 6,60
224,22.018904008223,19.9999999999999,19, 4,30,26.1240634997693, 8,19,45
225,44.9845337103538,20.0210394460981,19,15,45,70.6488592958819,28,23,30
258,22.6456969239667,20.,31,10,30,26.1488632727625, 7,22,60
259,43.5092337531263,19.8835635566945,19,15,30,66.9407337426071,28,24,45
260,32670316.7020279,0.0, 1, 1,15,158628.224636599,24, 6,60
291,0.0,0.0, 1, 1,15,0.0, 1, 1,15
322,32670316.7020289,0.0, 1, 1,15,158628.2246366,24, 6,60
323,431049.771150847,0.0, 1, 1,15,10644.5712338902,31,10,15
324,0.0,0.0, 1, 1,15,0.0, 1, 1,15
325,431049.771150862,0.0, 1, 1,15,10644.5712338904,31,10,15
408,103312071.50087,0.0, 1, 1,15,166632.373388501, 1, 6,15
461,62089590.5266451,0.0, 1, 1,15,100144.500849427, 1, 6,15
4,334,11
8,49769377.9355311,7056.14999085974, 1, 9,15,23520.4999695325, 1, 1,15
9,29910931.5290119,4240.68027348943, 1, 9,15,14135.6009116314, 1, 1,15
71,33517463.4304014,0.0, 1, 1,15,42054.5337897132, 1,20,15
93,20143682.6273287,0.0, 1, 1,15,25274.3822174764, 1,20,15
125,40516539.4111177,6007.79054138761, 1, 1,15,30038.952706938, 1,19,15
137,24350061.9535231,3610.62603106806, 1, 1,15,18053.1301553403, 1,19,15
138,90518825.7267201,0.0, 1, 1,15,145258.520084451, 2,12,30
139,0.0,0.0, 1, 1,15,0.0, 1, 1,15
140,18.9781063263828,17.4636379993969,27, 7,60,21.253637946217, 7,16,30
141,19.9872344728473,19.5327607766402,27, 6,60,21.478875231354, 7,24,60
142,20.0545062475632,19.9999999999998,25, 8,30,21.5755113486124, 7,20,45
143,19.516306286973,18.7318189996984,27, 7,60,21.3317297214328, 7,16,15
144,20.1481838714727,19.9999999999999,27, 6,45,21.8629701716311, 7,23,60
145,20.06770917216,19.7663803883201,27, 6,60,21.6676280834826, 7,23,60
146,116132014.070276,2323.89768708231, 7,13,60,81758.1874716796,30,24,60
147,0.0,0.0, 1, 1,15,0.0, 1, 1,15
148,0.365205104591309,0.350438449263464, 6,15,60,0.380809096600534,23, 8,60
149,70264968.3977747,1066.56164767727, 7,13,60,47978.4749388031,23, 7,60
150,0.0,0.0, 1, 1,15,0.0, 1, 1,15
151,0.365320481091277,0.349733900250677, 6,15,60,0.380818332677725,23, 8,60
224,20.0545062475632,19.9999999999998,25, 8,30,21.5755113486124, 7,20,45
225,37.2508708496771,15.9991158662117,23,14,45,62.5702312704811,19,13,30
258,20.1481838714727,19.9999999999999,27, 6,45,21.8629701716311, 7,23,60
259,36.9865858036234,15.4263805817439,23,13,30,62.3331474552661,19,12,45
260,300200095.691504,0.0, 1,13,45,300708.929575713,27, 6,60
291,0.0,0.0, 1, 1,15,0.0, 1, 1,15
322,300200095.691512,0.0, 1,13,45,300708.929575721,27, 6,60
323,34840732.6501608,0.0, 1, 1,15,47372.4092018613,23, 6,60
324,0.0,0.0, 1, 1,15,0.0, 1, 1,15
325,34840732.6501619,0.0, 1, 1,15,47372.4092018624,23, 6,60
408,99979424.0331002,0.0, 1, 1,15,166632.373388501, 1, 7,15
461,60086700.5096565,0.0, 1, 1,15,100144.500849427, 1, 7,15
4,365,12
8,51754508.1329596,7056.14999085974, 1, 9,15,23520.4999695325, 1, 1,15
9,31103976.2459535,4240.68027348943, 1, 9,15,14135.6009116314, 1, 1,15
71,34379581.3730905,0.0, 1, 1,15,42054.5337897132, 1,20,15
93,20661807.462787,0.0, 1, 1,15,25274.3822174764, 1,20,15
125,41742128.6815608,6007.79054138761, 1, 1,15,30038.952706938, 1,19,15
137,25086629.6638611,3610.62603106806, 1, 1,15,18053.1301553403, 1,19,15
138,85285170.8848052,0.0, 1, 1,15,128630.168500614,15,13,30
139,0.0,0.0, 1, 1,15,0.0, 1, 1,15
140,18.2221191013252,17.1508100806704,31,24,60,19.3817474747995,29,15,60
141,19.6770040379886,19.4209967898813,16, 8,60,19.9749011265776,29,23,60
142,20.,19.9999999999998,15, 5,60,20.0000000000001,20, 5,30
143,19.1110595506626,18.5754050403352,31,24,60,19.6908737373998,29,15,60
144,20.0011701483015,19.9999999999999,18, 6,60,20.1472177833394,28,20,60
145,19.839087093145,19.7104983949406,16, 8,60,20.0298643578279,28,22,60
146,195885805.656325,28387.5863049465,11,15,60,111121.643712057,31, 9,60
147,0.0,0.0, 1, 1,15,0.0, 1, 1,15
148,0.376156059693842,0.361391164834183,29,15,60,0.394308928735427,31,24,60
149,117672000.458493,17345.7345644148,11,15,60,66528.5282530704,31, 9,60
150,0.0,0.0, 1, 1,15,0.0, 1, 1,15
151,0.376157937826166,0.361392548888056,29,15,60,0.394307488591102,31,24,60
224,20.,19.9999999999998,15, 5,60,20.0000000000001,20, 5,30
225,20.3128698716195,7.94744690834848,16,19,60,40.1862917896315,25, 4,30
258,20.0011701483015,19.9999999999999,18, 6,60,20.1472177833394,28,20,60
259,20.2803923099201,7.44932559155944,16,19,60,40.8107957968791,25, 4,15
260,599137409.560758,57752.0135560828,29,15,60,375729.994752786,18, 6,60
291,0.0,0.0, 1, 1,15,0.0, 1, 1,15
322,599137409.560771,57752.0135560835,29,15,60,375729.994752786,18, 6,60
323,99647682.9577976,0.0,11,20,15,72062.9004187401,31,18,60
324,0.0,0.0, 1, 1,15,0.0, 1, 1,15
325,99647682.9578006,0.0,11,20,15,72062.9004187439,31,18,60
408,103312071.50087,0.0, 1, 1,15,166632.373388501, 1, 7,15
461,62089590.5266451,0.0, 1, 1,15,100144.500849427, 1, 7,15
End of Data
 Number of Records Written=         384
