Program Version,EnergyPlus, Version 8.4.0-09f5359d8a, YMD=2023.08.02 14:39
1,5,Environment Title[],Latitude[deg],Longitude[deg],Time Zone[],Elevation[m]
2,6,Day of Simulation[],Month[],Day of Month[],DST Indicator[1=yes 0=no],Hour[],StartMinute[],EndMinute[],DayType
3,3,Cumulative Day of Simulation[],Month[],Day of Month[],DST Indicator[1=yes 0=no],DayType  ! When Daily Report Variables Requested
4,2,Cumulative Days of Simulation[],Month[]  ! When Monthly Report Variables Requested
5,1,Cumulative Days of Simulation[] ! When Run Period Report Variables Requested
8,9,PERIM,Zone People Total Heating Energy [J] !Monthly  [Value,Min,Day,Hour,Minute,Max,Day,Hour,Minute]
9,9,CORE,Zone People Total Heating Energy [J] !Monthly  [Value,Min,Day,Hour,Minute,Max,Day,Hour,Minute]
71,9,PERIM,Zone Lights Electric Energy [J] !Monthly  [Value,Min,Day,Hour,Minute,Max,Day,Hour,Minute]
93,9,CORE,Zone Lights Electric Energy [J] !Monthly  [Value,Min,Day,Hour,Minute,Max,Day,Hour,Minute]
125,9,PERIM,Zone Electric Equipment Electric Energy [J] !Monthly  [Value,Min,Day,Hour,Minute,Max,Day,Hour,Minute]
137,9,CORE,Zone Electric Equipment Electric Energy [J] !Monthly  [Value,Min,Day,Hour,Minute,Max,Day,Hour,Minute]
138,9,PERIM,Zone Windows Total Transmitted Solar Radiation Energy [J] !Monthly  [Value,Min,Day,Hour,Minute,Max,Day,Hour,Minute]
139,9,CORE,Zone Windows Total Transmitted Solar Radiation Energy [J] !Monthly  [Value,Min,Day,Hour,Minute,Max,Day,Hour,Minute]
140,9,PERIM,Zone Mean Radiant Temperature [C] !Monthly [Value,Min,Day,Hour,Minute,Max,Day,Hour,Minute]
141,9,CORE,Zone Mean Radiant Temperature [C] !Monthly [Value,Min,Day,Hour,Minute,Max,Day,Hour,Minute]
142,9,PERIM,Zone Mean Air Temperature [C] !Monthly [Value,Min,Day,Hour,Minute,Max,Day,Hour,Minute]
143,9,PERIM,Zone Operative Temperature [C] !Monthly [Value,Min,Day,Hour,Minute,Max,Day,Hour,Minute]
144,9,CORE,Zone Mean Air Temperature [C] !Monthly [Value,Min,Day,Hour,Minute,Max,Day,Hour,Minute]
145,9,CORE,Zone Operative Temperature [C] !Monthly [Value,Min,Day,Hour,Minute,Max,Day,Hour,Minute]
146,9,PERIM,Zone Infiltration Total Heat Loss Energy [J] !Monthly  [Value,Min,Day,Hour,Minute,Max,Day,Hour,Minute]
147,9,PERIM,Zone Infiltration Total Heat Gain Energy [J] !Monthly  [Value,Min,Day,Hour,Minute,Max,Day,Hour,Minute]
148,9,PERIM,Zone Infiltration Air Change Rate [ach] !Monthly [Value,Min,Day,Hour,Minute,Max,Day,Hour,Minute]
149,9,CORE,Zone Infiltration Total Heat Loss Energy [J] !Monthly  [Value,Min,Day,Hour,Minute,Max,Day,Hour,Minute]
150,9,CORE,Zone Infiltration Total Heat Gain Energy [J] !Monthly  [Value,Min,Day,Hour,Minute,Max,Day,Hour,Minute]
151,9,CORE,Zone Infiltration Air Change Rate [ach] !Monthly [Value,Min,Day,Hour,Minute,Max,Day,Hour,Minute]
224,9,PERIM,Zone Air Temperature [C] !Monthly [Value,Min,Day,Hour,Minute,Max,Day,Hour,Minute]
225,9,PERIM,Zone Air Relative Humidity [%] !Monthly [Value,Min,Day,Hour,Minute,Max,Day,Hour,Minute]
258,9,CORE,Zone Air Temperature [C] !Monthly [Value,Min,Day,Hour,Minute,Max,Day,Hour,Minute]
259,9,CORE,Zone Air Relative Humidity [%] !Monthly [Value,Min,Day,Hour,Minute,Max,Day,Hour,Minute]
260,9,PERIM IDEAL LOADS AIR,Zone Ideal Loads Supply Air Total Heating Energy [J] !Monthly  [Value,Min,Day,Hour,Minute,Max,Day,Hour,Minute]
291,9,PERIM IDEAL LOADS AIR,Zone Ideal Loads Supply Air Total Cooling Energy [J] !Monthly  [Value,Min,Day,Hour,Minute,Max,Day,Hour,Minute]
322,9,PERIM IDEAL LOADS AIR,Zone Ideal Loads Zone Total Heating Energy [J] !Monthly  [Value,Min,Day,Hour,Minute,Max,Day,Hour,Minute]
323,9,CORE IDEAL LOADS AIR,Zone Ideal Loads Supply Air Total Heating Energy [J] !Monthly  [Value,Min,Day,Hour,Minute,Max,Day,Hour,Minute]
324,9,CORE IDEAL LOADS AIR,Zone Ideal Loads Supply Air Total Cooling Energy [J] !Monthly  [Value,Min,Day,Hour,Minute,Max,Day,Hour,Minute]
325,9,CORE IDEAL LOADS AIR,Zone Ideal Loads Zone Total Heating Energy [J] !Monthly  [Value,Min,Day,Hour,Minute,Max,Day,Hour,Minute]
408,9,DHW PERIM,Water Use Equipment Heating Energy [J] !Monthly  [Value,Min,Day,Hour,Minute,Max,Day,Hour,Minute]
461,9,DHW CORE,Water Use Equipment Heating Energy [J] !Monthly  [Value,Min,Day,Hour,Minute,Max,Day,Hour,Minute]
End of Data Dictionary
1,ARCHSIM,  37.57, 126.97,   9.00,  87.10
4,31, 1
8,51566344.1127519,7056.14998806123, 1,16,15,23520.4999602041, 1, 1,15
9,30990891.4455003,4240.68027442532, 1,16,15,14135.6009147511, 1, 1,15
71,34526772.2276611,0.0, 1, 1,15,42054.5337730342, 1,20,15
93,20750267.8051276,0.0, 1, 1,15,25274.3822230543, 1,20,15
125,41814222.1514741,6007.79053900488, 1, 1,15,30038.9526950244, 1,20,15
137,25129957.1817794,3610.62603186489, 1, 1,15,18053.1301593245, 1,20,15
138,139523595.282894,0.0, 1, 1,15,219245.715722535,31,12,45
139,0.0,0.0, 1, 1,15,0.0, 1, 1,15
140,18.1736913662272,17.0704908591151,23, 7,60,19.7989876587653, 8,15,15
141,19.6832542331248,19.4058624448962,15, 8,60,20.0276957020383, 8,23,60
142,20.,19.9999999999998,24, 7,45,20.0000000000002,23, 1,60
143,19.0868456831136,18.5352454295576,23, 7,60,19.8994938293826, 8,15,15
144,20.0011749568369,19.9999999999999,28, 5,30,20.1634218118351, 8,20,45
145,19.8422145949808,19.7029312224481,15, 8,60,20.0697764130427, 8,21,60
146,213333063.441779,25885.6843035137, 6,15,60,109549.534844938,23, 6,60
147,0.0,0.0, 1, 1,15,0.0, 1, 1,15
148,0.378739484518524,0.361597267584073, 6,15,60,0.394147196379599,23, 6,60
149,128163403.684812,15509.7787604773, 6,15,60,65915.4993365598,23, 6,60
150,0.0,0.0, 1, 1,15,0.0, 1, 1,15
151,0.378741330185577,0.361598226909116, 6,15,60,0.394145600506832,23, 6,60
224,20.,19.9999999999998,24, 7,45,20.0000000000002,23, 1,60
225,17.6715084554072,6.86968637876762,14,19,60,34.9144018368246, 2,22,45
258,20.0011749568369,19.9999999999999,28, 5,30,20.1634218118351, 8,20,45
259,17.6414983475409,6.25803545587716,14,19,60,35.3013727401325, 2,22,30
260,647551573.206537,33987.5322899034, 8,14,60,394138.218534296,23, 6,60
291,0.0,0.0, 1, 1,15,0.0, 1, 1,15
322,647551573.206551,33987.5322899058, 8,14,60,394138.218534296,23, 6,60
323,109764196.007705,0.0, 2,20,15,75878.1096349762,23, 6,60
324,0.0,0.0, 1, 1,15,0.0, 1, 1,15
325,109764196.007709,0.0, 2,20,15,75878.1096349782,23, 6,60
408,103312071.459896,0.0, 1, 1,15,166632.373322413, 1, 7,15
461,62089590.5403474,0.0, 1, 1,15,100144.500871528, 1, 7,15
4,59, 2
8,46551773.5212363,7056.14998806123, 1, 9,15,23520.4999602041, 1, 1,15
9,27977181.3304754,4240.68027442532, 1, 9,15,14135.6009147511, 1, 1,15
71,31204464.0595914,0.0, 1, 1,15,42054.5337730342, 1,20,15
93,18753591.6095063,0.0, 1, 1,15,25274.3822230543, 1,20,15
125,37776986.9092627,6007.79053900488, 1, 1,15,30038.9526950244, 1,19,15
137,22703616.4883663,3610.62603186489, 1, 1,15,18053.1301593245, 1,19,15
138,162359661.078857,0.0, 1, 1,15,256511.944225201,18,13,30
139,0.0,0.0, 1, 1,15,0.0, 1, 1,15
140,18.5675485359569,17.2837475777548, 8, 6,60,20.6620737558817,27,15,60
141,19.8049930352088,19.5035024454271, 8, 7,60,20.4003797554183,27,23,30
142,20.0037028017605,19.9999999999998,13, 5,30,20.3628960626746,27,15,60
143,19.2856256688587,18.6418737888774, 8, 6,60,20.5124849092781,27,15,60
144,20.0199636796062,19.9999999999999, 8, 9,45,20.6326963427327,23,20,45
145,19.9124783574075,19.7517512227135, 8, 7,60,20.472016845798,23,20,60
146,168320009.421964,14581.8299150992,23,19,30,100652.492071774, 8, 6,60
147,0.0,0.0, 1, 1,15,0.0, 1, 1,15
148,0.374912692127072,0.358297918282914,24,15,60,0.390396389814332, 8, 6,60
149,101315957.305706,9439.10129338202,23,18,60,60455.7354870986, 8, 6,60
150,0.0,0.0, 1, 1,15,0.0, 1, 1,15
151,0.374932505691449,0.358120542307915,23,15,60,0.390397119816408, 8, 6,60
224,20.0037028017605,19.9999999999998,13, 5,30,20.3628960626746,27,15,60
225,18.4468828309203,6.47806600627212, 9,17,60,37.9505923959882, 3,22,15
258,20.0199636796062,19.9999999999999, 8, 9,45,20.6326963427327,23,20,45
259,18.4698485491122,6.12468560589899, 9,17,60,38.3672449229108, 3,21,60
260,455801193.295816,0.0,23,14,30,357861.095900212, 8, 6,60
291,0.0,0.0, 1, 1,15,0.0, 1, 1,15
322,455801193.295826,0.0,23,14,30,357861.095900221, 8, 6,60
323,73901617.5170107,0.0, 5,20,15,66478.2486012081, 8, 6,60
324,0.0,0.0, 1, 1,15,0.0, 1, 1,15
325,73901617.517013,0.0, 5,20,15,66478.2486012081, 8, 6,60
408,93314129.0605511,0.0, 1, 1,15,166632.373322413, 1, 7,15
461,56080920.4880557,0.0, 1, 1,15,100144.500871528, 1, 7,15
4,90, 3
8,51378180.1130702,7056.14998806123, 1, 9,15,23520.4999602041, 1, 1,15
9,30877806.6381823,4240.68027442532, 1, 9,15,14135.6009147511, 1, 1,15
71,34673963.0958667,0.0, 1, 1,15,42054.5337730342, 1,20,15
93,20838728.1429082,0.0, 1, 1,15,25274.3822230543, 1,20,15
125,41886315.6379421,6007.79053900488, 1, 1,15,30038.9526950244, 1,19,15
137,25173284.6941618,3610.62603186489, 1, 1,15,18053.1301593245, 1,19,15
138,240024091.990621,0.0, 1, 1,15,300529.618758921,23,13,30
139,0.0,0.0, 1, 1,15,0.0, 1, 1,15
140,19.4401504260351,17.6268612971732, 8, 6,60,21.933408989123,20,16,15
141,20.1929914581641,19.5830078724013, 8, 7,60,21.3416121359164,30,22,60
142,20.1441889341239,19.9999999999998, 8, 1,30,22.1492547088088,30,18,30
143,19.7921696800795,18.8134306485866, 8, 6,60,22.0227125177974,30,18,30
144,20.1928455453576,19.9999999999999, 9, 4,30,21.550607798218,30,21,60
145,20.1929185017609,19.7915039362006, 8, 7,60,21.4406627833687,30,22,60
146,137596150.221668,3531.55470464654,19,19,60,82277.689004778, 8, 6,60
147,0.0,0.0, 1, 1,15,0.0, 1, 1,15
148,0.367860209890646,0.354036181160401,19,15,60,0.38340724466588, 8, 6,60
149,83087056.6124128,1730.18816359115,19,19,60,49735.7035528634, 8, 6,60
150,0.0,0.0, 1, 1,15,0.0, 1, 1,15
151,0.367921973437339,0.352841264857764,19,15,60,0.383401266801968, 8, 6,60
224,20.1441889341239,19.9999999999998, 8, 1,30,22.1492547088088,30,18,30
225,23.435497002712,8.75584772910714, 7,17,60,41.5909951089924,31,19,60
258,20.1928455453576,19.9999999999999, 9, 4,30,21.550607798218,30,21,60
259,23.403133702338,8.47647503846438, 7,17,60,39.660652322395,31,17,60
260,258696975.978867,0.0, 1,13,45,293616.950564604, 8, 6,60
291,0.0,0.0, 1, 1,15,0.0, 1, 1,15
322,258696975.978873,0.0, 1,13,45,293616.950564604, 8, 6,60
323,30084938.7325486,0.0, 1,19,15,51970.4490494701, 8, 6,60
324,0.0,0.0, 1, 1,15,0.0, 1, 1,15
325,30084938.7325496,0.0, 1,19,15,51970.4490494713, 8, 6,60
408,103312071.459896,0.0, 1, 1,15,166632.373322413, 1, 7,15
461,62089590.5403474,0.0, 1, 1,15,100144.500871528, 1, 7,15
4,120, 4
8,50145705.9151556,7056.14998806123, 1,15,15,23520.4999602041, 1, 1,15
9,30137101.1502494,4240.68027442532, 1,15,15,14135.6009147511, 1, 1,15
71,33223081.6806971,0.0, 1, 1,15,42054.5337730342, 1,19,15
93,19966761.9562129,0.0, 1, 1,15,25274.3822230543, 1,19,15
125,40372352.4221129,6007.79053900488, 1, 1,15,30038.9526950244, 1,19,15
137,24263406.9341318,3610.62603186489, 1, 1,15,18053.1301593245, 1,19,15
138,265578162.111685,0.0, 1, 1,15,329578.867851786,29,18,30
139,0.0,0.0, 1, 1,15,0.0, 1, 1,15
140,21.7578678432592,18.0521626454113, 1, 7,15,27.1160178309518,12,18,45
141,22.1984207617734,19.8448843124519, 2, 8,45,26.0945534540661,12,22,60
142,21.8198895930713,19.9999999999999,26, 4,60,27.4965742451112,11,18,45
143,21.7888787181653,19.0260813227057, 1, 7,15,27.2782882704382,11,18,45
144,22.1465490548907,19.9999999999999, 1, 7,45,26.2947929219054,12,21,60
145,22.1724849083321,19.9224421562259, 2, 8,45,26.1810513923279,12,22,60
146,95432439.4903847,0.0, 7,19,60,66546.6947870782, 1, 1,60
147,59646.5349491821,0.0, 1, 1,15,11309.6403794329,19,19,60
148,0.361676077079962,0.349592014249859,19,12,60,0.372494965717983, 1, 4,60
149,59404049.2161836,0.0, 7,19,60,39151.2535001887, 1, 1,60
150,107224.937042664,0.0, 1, 1,15,10891.2971021932,19,19,60
151,0.362084309268822,0.347949173109724,19,12,60,0.372514942934173, 1, 4,60
224,21.8198895930713,19.9999999999999,26, 4,60,27.4965742451112,11,18,45
225,35.3307641242892,16.5315106883964,18,18,15,64.7589112298619,20,23,45
258,22.1465490548907,19.9999999999999, 1, 7,45,26.2947929219054,12,21,60
259,34.4873554178805,17.9798004545193,18,18,15,58.0091615435083,25, 1,60
260,59337630.6683709,0.0, 1,14,30,221697.739058074, 1, 7,15
291,0.0,0.0, 1, 1,15,0.0, 1, 1,15
322,59337630.6683726,0.0, 1,14,30,221697.739058081, 1, 7,15
323,2662709.97923404,0.0, 1, 1,15,24668.6471965733, 2, 6,60
324,0.0,0.0, 1, 1,15,0.0, 1, 1,15
325,2662709.97923414,0.0, 1, 1,15,24668.6471965739, 2, 6,60
408,99979423.9934476,0.0, 1, 1,15,166632.373322413, 1, 6,15
461,60086700.5229168,0.0, 1, 1,15,100144.500871528, 1, 6,15
4,151, 5
8,51378180.1130702,7056.14998806123, 1, 8,15,23520.4999602041, 1, 1,15
9,30877806.6381823,4240.68027442532, 1, 8,15,14135.6009147511, 1, 1,15
71,34673963.0958667,0.0, 1, 1,15,42054.5337730342, 1,19,15
93,20838728.1429082,0.0, 1, 1,15,25274.3822230543, 1,19,15
125,41886315.6379422,6007.79053900488, 1, 1,15,30038.9526950244, 1,18,15
137,25173284.6941618,3610.62603186489, 1, 1,15,18053.1301593245, 1,18,15
138,294413840.334728,0.0, 1, 1,15,460915.447907436,30,17,45
139,0.0,0.0, 1, 1,15,0.0, 1, 1,15
140,25.8586947378248,19.6547392050703, 3, 7,15,33.4972342720782,26,17,45
141,26.1981319991535,21.756871001471, 4,11,45,32.0871781136194,26,22,60
142,25.6898238377532,19.3442180102334, 3, 6,60,33.3747013926004,26,18,30
143,25.774259287789,19.5039866009568, 3, 6,60,33.414921001462,26,17,45
144,26.1653553675238,21.5753823651961, 4, 9,45,32.264538620343,26,21,60
145,26.1817436833386,21.6672384061844, 4,11,30,32.166687313471,26,22,60
146,90649625.217116,0.0, 8,18,60,63455.6177784031,17, 5,60
147,56937.7276574824,0.0, 1, 1,15,8525.30116600378,11,18,60
148,0.359430942301915,0.350098247774241,23,15,60,0.366307961995793,18,21,52
149,57684104.1779746,0.0, 7,20,60,41712.8419325577,17, 5,60
150,107033.388175976,0.0, 1, 1,15,8700.82082420861,11,18,60
151,0.360017485140718,0.347606265518455,23,15,60,0.36839799685089,18,24,60
224,25.6898238377532,19.3442180102334, 3, 6,60,33.3747013926004,26,18,30
225,42.302100331086,20.1810991038079, 8,17,60,67.0774985485838,28,14,60
258,26.1653553675238,21.5753823651961, 4, 9,45,32.264538620343,26,21,60
259,40.907746353196,22.6490165559428,17,16,15,62.9184766630262,28,15,30
260,0.0,0.0, 1, 1,15,0.0, 1, 1,15
291,0.0,0.0, 1, 1,15,0.0, 1, 1,15
322,0.0,0.0, 1, 1,15,0.0, 1, 1,15
323,0.0,0.0, 1, 1,15,0.0, 1, 1,15
324,0.0,0.0, 1, 1,15,0.0, 1, 1,15
325,0.0,0.0, 1, 1,15,0.0, 1, 1,15
408,103312071.459896,0.0, 1, 1,15,166632.373322413, 1, 6,15
461,62089590.5403474,0.0, 1, 1,15,100144.500871528, 1, 6,15
4,181, 6
8,49769377.9157922,7056.14998806123, 1, 8,15,23520.4999602041, 1, 1,15
9,29910931.5356134,4240.68027442532, 1, 8,15,14135.6009147511, 1, 1,15
71,33517463.4171083,0.0, 1, 1,15,42054.5337730342, 1,19,15
93,20143682.6317743,0.0, 1, 1,15,25274.3822230543, 1,19,15
125,40516539.3950489,6007.79053900488, 1, 1,15,30038.9526950244, 1,18,15
137,24350061.9588966,3610.62603186489, 1, 1,15,18053.1301593245, 1,18,15
138,302428231.53396,0.0, 1, 1,15,495246.373783101,23,17,45
139,0.0,0.0, 1, 1,15,0.0, 1, 1,15
140,30.9042098378793,25.4809999733215, 1, 6,15,36.7934590787921,11,17,45
141,31.0525445459968,26.9845699318265, 1,10,45,34.8628439449073,11,22,60
142,30.7192943442427,25.0589900201521, 1, 5,60,36.5020493861047,11,17,45
143,30.811752091061,25.2963393067688, 1, 6,15,36.6477542324484,11,17,45
144,31.0016076124937,26.7938596046099, 1, 9,45,34.9846518932971,11,22,60
145,31.0270760792454,26.8996046917633, 1, 9,45,34.9237479191022,11,22,60
146,95879471.2345846,0.0, 1,15,60,54953.0733724367, 1, 4,60
147,3679.87977580822,0.0, 1, 1,15,3679.87977580822, 1,15,60
148,0.359003910862031,0.352300658343518,15,15,60,0.365993822714809,12, 3,60
149,59577571.8917007,0.0, 1,15,45,37858.4041041424,12, 7,15
150,6141.43629093693,0.0, 1, 1,15,4470.85817870354, 1,15,60
151,0.359347891057167,0.350570979244835,25,15,60,0.368999114627865,12, 6,60
224,30.7192943442427,25.0589900201521, 1, 5,60,36.5020493861047,11,17,45
225,45.814698851036,19.3674645617389, 1,15,15,72.1931925557762,14, 5,60
258,31.0016076124937,26.7938596046099, 1, 9,45,34.9846518932971,11,22,60
259,44.8553202983239,20.7229634339408, 1,15,15,66.7868529401401,14, 5,60
260,0.0,0.0, 1, 1,15,0.0, 1, 1,15
291,0.0,0.0, 1, 1,15,0.0, 1, 1,15
322,0.0,0.0, 1, 1,15,0.0, 1, 1,15
323,0.0,0.0, 1, 1,15,0.0, 1, 1,15
324,0.0,0.0, 1, 1,15,0.0, 1, 1,15
325,0.0,0.0, 1, 1,15,0.0, 1, 1,15
408,99979423.9934476,0.0, 1, 1,15,166632.373322413, 1, 6,15
461,60086700.5229168,0.0, 1, 1,15,100144.500871528, 1, 6,15
4,212, 7
8,51754508.1124335,7056.14998806123, 1,15,15,23520.4999602041, 1, 1,15
9,31103976.2528184,4240.68027442532, 1,15,15,14135.6009147511, 1, 1,15
71,34379581.3594555,0.0, 1, 1,15,42054.5337730342, 1,19,15
93,20661807.4673469,0.0, 1, 1,15,25274.3822230543, 1,19,15
125,41742128.665006,6007.79053900488, 1, 1,15,30038.9526950244, 1,19,15
137,25086629.669397,3610.62603186489, 1, 1,15,18053.1301593245, 1,19,15
138,263633011.156975,0.0, 1, 1,15,421028.675859312, 6,17,60
139,0.0,0.0, 1, 1,15,0.0, 1, 1,15
140,26.2226494472151,24.0831615659915,12, 6,30,32.1889852371659, 1,14,15
141,25.535595255175,24.5108003251773,17,22,15,31.2128399158224, 1, 1,15
142,25.4886106609434,23.9529231994979, 3,14,15,32.1004215395055, 1,13,60
143,25.8556300540792,24.0911543636774,12, 4,30,32.0854169857442, 1,13,60
144,25.2264819805831,23.9639517767037, 3,14,15,30.9658943382754, 1, 1,15
145,25.381038617879,24.2581863156694,17,21,60,31.0893671270489, 1, 1,15
146,23181924.0490155,0.0, 1,14, 2,35075.7339627933, 1, 1,15
147,22720359.0473289,0.0, 1, 1,15,50716.3797744627,30,14,45
148,0.350169025799414,0.341442831938733,20,15,60,0.358365316516351, 1, 1,60
149,12797499.9673738,0.0, 1,14, 2,24517.4565700042, 1, 3,60
150,13495964.9026552,0.0, 1, 1,15,29537.9337032765,31,15,60
151,0.349862144907844,0.341436722831369,20,15,60,0.360250194211322, 1, 3,60
224,25.4886106609434,23.3825258916405,28,14, 3,32.1004215395055, 1,13,60
225,73.4533931047497,51.3105744508796,12,13,60,91.3439120625332, 3, 5,60
258,25.2264819805831,23.5976315530895,31,14, 3,30.9658943382754, 1, 1,15
259,74.6752660678325,57.6598541242489,12,13,60,91.3658203129156, 2,14, 1
260,0.0,0.0, 1, 1,15,0.0, 1, 1,15
291,310218518.723192,0.0, 1, 1,15,974157.483012697, 1,14,45
322,2.481873266901857E-006,0.0, 1, 1,15,8.400320439250208E-008,29,14,60
323,0.0,0.0, 1, 1,15,0.0, 1, 1,15
324,118180406.033902,0.0, 1, 1,15,551126.397439292, 1,14,45
325,5.158779003977543E-007,0.0, 1, 1,15,2.916067387559451E-008, 1,14,45
408,103312071.459896,0.0, 1, 1,15,166632.373322413, 1, 6,15
461,62089590.5403474,0.0, 1, 1,15,100144.500871528, 1, 6,15
4,243, 8
8,51378180.1130702,7056.14998806123, 1, 8,15,23520.4999602041, 1, 1,15
9,30877806.6381823,4240.68027442532, 1, 8,15,14135.6009147511, 1, 1,15
71,34673963.0958667,0.0, 1, 1,15,42054.5337730342, 1,19,15
93,20838728.1429082,0.0, 1, 1,15,25274.3822230543, 1,19,15
125,41886315.6379422,6007.79053900488, 1, 1,15,30038.9526950244, 1,18,15
137,25173284.6941618,3610.62603186489, 1, 1,15,18053.1301593245, 1,18,15
138,274487631.648833,0.0, 1, 1,15,326539.02435447, 7,17,60
139,0.0,0.0, 1, 1,15,0.0, 1, 1,15
140,26.2712245791903,23.1380349901464,26, 7,15,30.3347552444801, 7,14,15
141,25.4686774569514,24.3668313562622,26, 8,15,27.1987584044335, 7,14,15
142,25.5000217727111,22.9471418005166,26, 6,60,30.4919543529008, 7,13,60
143,25.8856231759507,23.0435111773119,26, 7,15,30.3477872643999, 7,13,60
144,25.1610531442117,23.9427996316715,25,14,15,27.4876526970155, 7,13,60
145,25.3148653005815,24.3026903644267,26,21,60,27.3114608215254, 7,13,60
146,23542733.5212956,0.0, 1,14, 1,29538.3426760801,28, 6,60
147,24438239.6094211,0.0, 1, 1,15,51897.2892687274, 7,16,15
148,0.34961204896995,0.339023733480186, 7,15,60,0.357000982692387,25,22,22
149,12823212.6962638,0.0, 1,12,60,19866.1130388035,26, 6,60
150,14701560.0794986,0.0, 1, 1,15,30827.5342306456, 7,15,60
151,0.349217286679836,0.339016408561949, 7,15,60,0.357682352303973,28, 6,60
224,25.5000217727111,22.9471418005166,26, 6,60,30.4919543529008, 7,13,60
225,72.1572677550181,50.0261879651556,30,13,60,93.5660145908471, 2, 5,60
258,25.1610531442117,23.5724176196468, 7,14, 3,27.4876526970155, 7,13,60
259,73.7028655997282,55.7186494661029,27,22,30,94.2330619138179, 2, 5,60
260,0.0,0.0, 1, 1,15,0.0, 1, 1,15
291,324423536.544032,0.0, 1, 1,15,732360.962049666, 7,14,45
322,2.566006460012561E-006,0.0, 1, 1,15,6.220943760126829E-008, 4,14,45
323,0.0,0.0, 1, 1,15,0.0, 1, 1,15
324,118420421.941919,0.0, 1, 1,15,272748.043979321, 7,14, 1
325,6.027556663314369E-007,0.0, 1, 1,15,2.100080109812552E-008,18,14,60
408,103312071.459896,0.0, 1, 1,15,166632.373322413, 1, 6,15
461,62089590.5403474,0.0, 1, 1,15,100144.500871528, 1, 6,15
4,273, 9
8,49957541.9154739,7056.14998806123, 1, 8,15,23520.4999602041, 1, 1,15
9,30024016.3429314,4240.68027442532, 1, 8,15,14135.6009147511, 1, 1,15
71,33370272.5489027,0.0, 1, 1,15,42054.5337730342, 1,19,15
93,20055222.2939936,0.0, 1, 1,15,25274.3822230543, 1,19,15
125,40444445.9085809,6007.79053900488, 1, 1,15,30038.9526950244, 1,18,15
137,24306734.4465142,3610.62603186489, 1, 1,15,18053.1301593245, 1,18,15
138,221324494.119299,0.0, 1, 1,15,272146.84221171,23,12,30
139,0.0,0.0, 1, 1,15,0.0, 1, 1,15
140,24.8758377744914,22.3490797061154,30, 7,30,28.2550213895347, 8,14,15
141,24.7554674621156,23.8106140603647,30, 8,60,25.9394895206443, 8,14,15
142,24.3619918727731,22.113593113738,30, 7,30,28.2936210878121, 7,13,60
143,24.6189148236322,22.2313364099267,30, 7,30,28.1984927941645, 8,13,60
144,24.5649759113541,23.7157788592347,30, 7,60,26.1435182956657, 8,13,60
145,24.6602216867349,23.7784705844112,30, 7,60,26.0175854942876, 8,13,60
146,43059896.5424106,0.0, 1,14, 1,47107.25594277,15,24,60
147,2715239.94795116,0.0, 1, 1,15,27717.3796431125,20,18,60
148,0.353168870890366,0.342481991507138, 6,15,60,0.361206508674531,30,24,60
149,27009424.0524078,0.0, 1,12,60,28938.2721264357,15,24,60
150,1621400.31989623,0.0, 1, 1,15,17150.3476537889,20,18,60
151,0.353414576176135,0.342485981456066, 6,15,60,0.362403802748054,30,24,60
224,24.3619918727731,22.113593113738,30, 7,30,28.2936210878121, 7,13,60
225,63.3860569830233,35.6445157142197,16,13,60,88.7213062787819, 9, 6,60
258,24.5649759113541,23.6403125374986, 1,14, 3,26.1435182956657, 8,13,60
259,62.6115114335741,37.7161748494663,16,22,30,86.0157500011507, 9, 6,60
260,0.0,0.0, 1, 1,15,0.0, 1, 1,15
291,160013534.861673,0.0, 1, 1,15,470413.879116138, 8,14,45
322,2.745579042847827E-006,0.0, 1, 1,15,4.394564712129068E-008, 5,16,30
323,0.0,0.0, 1, 1,15,0.0, 1, 1,15
324,56042836.561559,0.0, 1, 1,15,161283.151522065, 8,14,45
325,1.066913499135426E-006,0.0, 1, 1,15,1.007833816402126E-008, 9,16,45
408,99979423.9934476,0.0, 1, 1,15,166632.373322413, 1, 6,15
461,60086700.5229168,0.0, 1, 1,15,100144.500871528, 1, 6,15
4,304,10
8,51566344.1127519,7056.14998806123, 1,15,15,23520.4999602041, 1, 1,15
9,30990891.4455003,4240.68027442532, 1,15,15,14135.6009147511, 1, 1,15
71,34526772.2276611,0.0, 1, 1,15,42054.5337730342, 1,19,15
93,20750267.8051276,0.0, 1, 1,15,25274.3822230543, 1,19,15
125,41814222.1514741,6007.79053900488, 1, 1,15,30038.9526950244, 1,19,15
137,25129957.1817794,3610.62603186489, 1, 1,15,18053.1301593245, 1,19,15
138,182627198.399504,0.0, 1, 1,15,261908.355418589,10,12,30
139,0.0,0.0, 1, 1,15,0.0, 1, 1,15
140,22.3432730143827,18.4542999406544,24, 7,30,27.0583706914888, 7,16,30
141,23.0202904329792,20.1837606623786,25,10,30,26.5975340931655, 7,22,60
142,22.393615448452,19.9999999999999,24, 7,30,26.9773111467605, 7,14,60
143,22.3684442314173,19.2271499703272,24, 7,30,26.9979374986247, 7,16,15
144,23.0402223651139,20.,31,13,45,26.9117970145874, 7,22,60
145,23.0302563990466,20.0942225610152,25,11,30,26.7546655538764, 7,22,60
146,79158719.8096062,0.0,14,18,30,55736.0354573075,24, 3,60
147,41160.4313455972,0.0, 1, 1,15,13377.9533092672,14,18,60
148,0.358593598759506,0.350412523367138,22,15,60,0.369408715221983,24, 6,60
149,51624542.9891944,0.0,14,18,30,35263.2860857992,15,24,60
150,30031.407681736,0.0, 1, 1,15,8657.4668324876,14,18,60
151,0.359381212986202,0.349076477543834,22,15,60,0.369993606926936,24, 6,60
224,22.393615448452,19.9999999999999,24, 7,30,26.9773111467605, 7,14,60
225,44.1890774383591,19.4127999387126,19,15,45,70.7837838194233,28,23,30
258,23.0402223651139,20.,31,13,45,26.9117970145874, 7,22,60
259,42.6933634952104,19.5837606524742,19,15,30,66.4842203403945,28,24,30
260,27788982.859058,0.0, 1, 1,15,155653.312719048,24, 6,60
291,0.0,0.0, 1, 1,15,0.0, 1, 1,15
322,27788982.8590589,0.0, 1, 1,15,155653.312719052,24, 6,60
323,26779.7535403804,0.0, 1, 1,15,3068.8029571127,31,12,15
324,0.0,0.0, 1, 1,15,0.0, 1, 1,15
325,26779.7535403811,0.0, 1, 1,15,3068.80295711283,31,12,15
408,103312071.459896,0.0, 1, 1,15,166632.373322413, 1, 6,15
461,62089590.5403474,0.0, 1, 1,15,100144.500871528, 1, 6,15
4,334,11
8,49769377.9157922,7056.14998806123, 1, 9,15,23520.4999602041, 1, 1,15
9,29910931.5356134,4240.68027442532, 1, 9,15,14135.6009147511, 1, 1,15
71,33517463.4171083,0.0, 1, 1,15,42054.5337730342, 1,20,15
93,20143682.6317743,0.0, 1, 1,15,25274.3822230543, 1,20,15
125,40516539.395049,6007.79053900488, 1, 1,15,30038.9526950244, 1,19,15
137,24350061.9588966,3610.62603186489, 1, 1,15,18053.1301593245, 1,19,15
138,135371285.05529,0.0, 1, 1,15,200852.746353475,15,13,15
139,0.0,0.0, 1, 1,15,0.0, 1, 1,15
140,19.1184384641184,17.4551955538891,27, 7,60,21.8830392349971, 7,16,30
141,20.081753374021,19.539319272236,27, 7,60,21.7673790608099, 7,24,30
142,20.0964229081605,19.9999999999998,11, 7,45,21.9432329182455, 7,19,45
143,19.6074306861394,18.7275977769446,27, 7,60,21.9102200573781, 7,16,30
144,20.2040101440308,19.9999999999999,26, 6,45,22.1403400602145, 7,23,60
145,20.1428817590259,19.769659636118,27, 7,60,21.9523983105959, 7,23,60
146,117386296.915782,3642.92733570186, 7,13,60,82013.7082810648,30,24,60
147,0.0,0.0, 1, 1,15,0.0, 1, 1,15
148,0.36538853928314,0.35103876733364, 6,15,60,0.380953193828086,23, 8,60
149,71114817.1897281,1547.82799040121, 7,13,60,48176.4465586053,23, 7,60
150,0.0,0.0, 1, 1,15,0.0, 1, 1,15
151,0.365521481423447,0.350083959215847, 6,15,60,0.380962716793345,23, 8,60
224,20.0964229081605,19.9999999999998,11, 7,45,21.9432329182455, 7,19,45
225,37.146118885978,15.979268881094,23,14,45,62.3305429104207,19,12,30
258,20.2040101440308,19.9999999999999,26, 6,45,22.1403400602145, 7,23,60
259,36.8559656537547,15.4233747902744,23,13,30,62.1058225339687,19,12,45
260,286714671.895775,0.0, 1,12,30,302148.526319403,27, 6,60
291,0.0,0.0, 1, 1,15,0.0, 1, 1,15
322,286714671.895782,0.0, 1,12,30,302148.526319404,27, 6,60
323,31834477.156789,0.0, 1, 1,15,47385.8168802799,23, 6,60
324,0.0,0.0, 1, 1,15,0.0, 1, 1,15
325,31834477.15679,0.0, 1, 1,15,47385.8168802824,23, 6,60
408,99979423.9934476,0.0, 1, 1,15,166632.373322413, 1, 7,15
461,60086700.5229168,0.0, 1, 1,15,100144.500871528, 1, 7,15
4,365,12
8,51754508.1124335,7056.14998806123, 1, 9,15,23520.4999602041, 1, 1,15
9,31103976.2528183,4240.68027442532, 1, 9,15,14135.6009147511, 1, 1,15
71,34379581.3594555,0.0, 1, 1,15,42054.5337730342, 1,20,15
93,20661807.4673469,0.0, 1, 1,15,25274.3822230543, 1,20,15
125,41742128.665006,6007.79053900488, 1, 1,15,30038.9526950244, 1,19,15
137,25086629.669397,3610.62603186489, 1, 1,15,18053.1301593245, 1,19,15
138,126445858.98921,0.0, 1, 1,15,191884.185039115,19,12,30
139,0.0,0.0, 1, 1,15,0.0, 1, 1,15
140,18.2691060881563,17.0818352630786,16, 8,30,19.7829127986122,29,15,45
141,19.701705111982,19.4112151307648,16, 8,60,20.0431253926751,29,23,30
142,20.,19.9999999999998,18, 9,45,20.0000000000002,17, 1,60
143,19.1345530440781,18.5409176315393,16, 8,30,19.8914563993061,29,15,45
144,20.0026434061796,19.9999999999999,17, 6,60,20.2211544552052,29,20,45
145,19.8521742590808,19.7056075653824,16, 8,60,20.103704494915,29,20,60
146,196802061.26853,28821.8388796175,11,15,60,111478.229218267,31, 9,60
147,0.0,0.0, 1, 1,15,0.0, 1, 1,15
148,0.376297164976944,0.36152165532611,29,15,60,0.394464023088434,31,24,60
149,118262250.045563,17543.1167707797,11,15,60,66740.3861409697,31, 9,60
150,0.0,0.0, 1, 1,15,0.0, 1, 1,15
151,0.376300668513702,0.361522687482584,29,15,60,0.394462267688938,31,24,60
224,20.,19.9999999999998,18, 9,45,20.0000000000002,17, 1,60
225,20.29514023511,7.91883827866529,16,19,60,40.1876031928672,25, 4,30
258,20.0026434061796,19.9999999999999,17, 6,60,20.2211544552052,29,20,45
259,20.2765513478702,7.4393819699741,16,19,60,40.8198288815861,25, 4,15
260,594572433.489961,39647.316452623,29,15,45,387249.471700984,18, 6,60
291,0.0,0.0, 1, 1,15,0.0, 1, 1,15
322,594572433.489974,39647.3164526232,29,15,45,387249.471700986,18, 6,60
323,97436396.2026847,0.0, 7,20,15,72638.8120462028,17, 7,30
324,0.0,0.0, 1, 1,15,0.0, 1, 1,15
325,97436396.2026874,0.0, 7,20,15,72638.8120462065,17, 7,30
408,103312071.459896,0.0, 1, 1,15,166632.373322413, 1, 7,15
461,62089590.5403474,0.0, 1, 1,15,100144.500871528, 1, 7,15
End of Data
 Number of Records Written=         384
