Program Version,EnergyPlus, Version 8.4.0-09f5359d8a, YMD=2023.08.02 14:39
1,5,Environment Title[],Latitude[deg],Longitude[deg],Time Zone[],Elevation[m]
2,6,Day of Simulation[],Month[],Day of Month[],DST Indicator[1=yes 0=no],Hour[],StartMinute[],EndMinute[],DayType
3,3,Cumulative Day of Simulation[],Month[],Day of Month[],DST Indicator[1=yes 0=no],DayType  ! When Daily Report Variables Requested
4,2,Cumulative Days of Simulation[],Month[]  ! When Monthly Report Variables Requested
5,1,Cumulative Days of Simulation[] ! When Run Period Report Variables Requested
8,9,PERIM,Zone People Total Heating Energy [J] !Monthly  [Value,Min,Day,Hour,Minute,Max,Day,Hour,Minute]
9,9,CORE,Zone People Total Heating Energy [J] !Monthly  [Value,Min,Day,Hour,Minute,Max,Day,Hour,Minute]
71,9,PERIM,Zone Lights Electric Energy [J] !Monthly  [Value,Min,Day,Hour,Minute,Max,Day,Hour,Minute]
93,9,CORE,Zone Lights Electric Energy [J] !Monthly  [Value,Min,Day,Hour,Minute,Max,Day,Hour,Minute]
125,9,PERIM,Zone Electric Equipment Electric Energy [J] !Monthly  [Value,Min,Day,Hour,Minute,Max,Day,Hour,Minute]
137,9,CORE,Zone Electric Equipment Electric Energy [J] !Monthly  [Value,Min,Day,Hour,Minute,Max,Day,Hour,Minute]
138,9,PERIM,Zone Windows Total Transmitted Solar Radiation Energy [J] !Monthly  [Value,Min,Day,Hour,Minute,Max,Day,Hour,Minute]
139,9,CORE,Zone Windows Total Transmitted Solar Radiation Energy [J] !Monthly  [Value,Min,Day,Hour,Minute,Max,Day,Hour,Minute]
140,9,PERIM,Zone Mean Radiant Temperature [C] !Monthly [Value,Min,Day,Hour,Minute,Max,Day,Hour,Minute]
141,9,CORE,Zone Mean Radiant Temperature [C] !Monthly [Value,Min,Day,Hour,Minute,Max,Day,Hour,Minute]
142,9,PERIM,Zone Mean Air Temperature [C] !Monthly [Value,Min,Day,Hour,Minute,Max,Day,Hour,Minute]
143,9,PERIM,Zone Operative Temperature [C] !Monthly [Value,Min,Day,Hour,Minute,Max,Day,Hour,Minute]
144,9,CORE,Zone Mean Air Temperature [C] !Monthly [Value,Min,Day,Hour,Minute,Max,Day,Hour,Minute]
145,9,CORE,Zone Operative Temperature [C] !Monthly [Value,Min,Day,Hour,Minute,Max,Day,Hour,Minute]
146,9,PERIM,Zone Infiltration Total Heat Loss Energy [J] !Monthly  [Value,Min,Day,Hour,Minute,Max,Day,Hour,Minute]
147,9,PERIM,Zone Infiltration Total Heat Gain Energy [J] !Monthly  [Value,Min,Day,Hour,Minute,Max,Day,Hour,Minute]
148,9,PERIM,Zone Infiltration Air Change Rate [ach] !Monthly [Value,Min,Day,Hour,Minute,Max,Day,Hour,Minute]
149,9,CORE,Zone Infiltration Total Heat Loss Energy [J] !Monthly  [Value,Min,Day,Hour,Minute,Max,Day,Hour,Minute]
150,9,CORE,Zone Infiltration Total Heat Gain Energy [J] !Monthly  [Value,Min,Day,Hour,Minute,Max,Day,Hour,Minute]
151,9,CORE,Zone Infiltration Air Change Rate [ach] !Monthly [Value,Min,Day,Hour,Minute,Max,Day,Hour,Minute]
224,9,PERIM,Zone Air Temperature [C] !Monthly [Value,Min,Day,Hour,Minute,Max,Day,Hour,Minute]
225,9,PERIM,Zone Air Relative Humidity [%] !Monthly [Value,Min,Day,Hour,Minute,Max,Day,Hour,Minute]
258,9,CORE,Zone Air Temperature [C] !Monthly [Value,Min,Day,Hour,Minute,Max,Day,Hour,Minute]
259,9,CORE,Zone Air Relative Humidity [%] !Monthly [Value,Min,Day,Hour,Minute,Max,Day,Hour,Minute]
260,9,PERIM IDEAL LOADS AIR,Zone Ideal Loads Supply Air Total Heating Energy [J] !Monthly  [Value,Min,Day,Hour,Minute,Max,Day,Hour,Minute]
291,9,PERIM IDEAL LOADS AIR,Zone Ideal Loads Supply Air Total Cooling Energy [J] !Monthly  [Value,Min,Day,Hour,Minute,Max,Day,Hour,Minute]
322,9,PERIM IDEAL LOADS AIR,Zone Ideal Loads Zone Total Heating Energy [J] !Monthly  [Value,Min,Day,Hour,Minute,Max,Day,Hour,Minute]
323,9,CORE IDEAL LOADS AIR,Zone Ideal Loads Supply Air Total Heating Energy [J] !Monthly  [Value,Min,Day,Hour,Minute,Max,Day,Hour,Minute]
324,9,CORE IDEAL LOADS AIR,Zone Ideal Loads Supply Air Total Cooling Energy [J] !Monthly  [Value,Min,Day,Hour,Minute,Max,Day,Hour,Minute]
325,9,CORE IDEAL LOADS AIR,Zone Ideal Loads Zone Total Heating Energy [J] !Monthly  [Value,Min,Day,Hour,Minute,Max,Day,Hour,Minute]
408,9,DHW PERIM,Water Use Equipment Heating Energy [J] !Monthly  [Value,Min,Day,Hour,Minute,Max,Day,Hour,Minute]
461,9,DHW CORE,Water Use Equipment Heating Energy [J] !Monthly  [Value,Min,Day,Hour,Minute,Max,Day,Hour,Minute]
End of Data Dictionary
1,ARCHSIM,  37.57, 126.97,   9.00,  87.10
4,31, 1
8,51566344.1165873,7056.14998858617, 1,16,15,23520.4999619539, 1, 1,15
9,30990891.4183849,4240.68027071494, 1,16,15,14135.6009023832, 1, 1,15
71,34526772.2302298,0.0, 1, 1,15,42054.5337761628, 1,20,15
93,20750267.7869721,0.0, 1, 1,15,25274.3822009405, 1,20,15
125,41814222.1545846,6007.79053945183, 1, 1,15,30038.9526972592, 1,20,15
137,25129957.1597922,3610.62602870579, 1, 1,15,18053.1301435289, 1,20,15
138,153289693.750767,0.0, 1, 1,15,243363.952801932,31,12,30
139,0.0,0.0, 1, 1,15,0.0, 1, 1,15
140,18.2093137451958,17.0614055218024,23, 7,60,19.954483206315, 8,15,15
141,19.6964845641068,19.4051415652241,15, 8,60,20.0701308821696, 8,23,60
142,20.,19.9999999999998,21, 4,60,20.0000000000002,16, 7,15
143,19.1046568725979,18.5307027609011,23, 7,60,19.9772416031575, 8,15,15
144,20.0018650946976,19.9999999999999,21, 8,30,20.2133321722503, 8,20,45
145,19.8491748294022,19.7025707826121,15, 8,60,20.114088983302, 8,21,60
146,212450517.785074,25620.4357039741, 6,15,60,109225.337787805,23, 6,60
147,0.0,0.0, 1, 1,15,0.0, 1, 1,15
148,0.378611246331717,0.361480396384413, 6,15,60,0.394008372421205,23, 6,60
149,127641164.617988,15350.2370736418, 6,15,60,65722.9009373657,23, 6,60
150,0.0,0.0, 1, 1,15,0.0, 1, 1,15
151,0.378613928852948,0.361481359782037, 6,15,60,0.394006732217616,23, 6,60
224,20.,19.9999999999998,21, 4,60,20.0000000000002,16, 7,15
225,17.6719238276579,6.85376988766859,14,19,60,34.9286170672871, 2,22,45
258,20.0018650946976,19.9999999999999,21, 8,30,20.2133321722503, 8,20,45
259,17.6430519891047,6.2541896740519,14,19,60,35.3131428668606, 2,22,30
260,638619686.36312,24426.395683636, 8,15,15,395351.416173403,23, 6,60
291,0.0,0.0, 1, 1,15,0.0, 1, 1,15
322,638619686.363132,24426.3956836373, 8,15,15,395351.416173403,23, 6,60
323,107751366.434439,0.0, 2,19,15,75563.8274412213,23, 6,60
324,0.0,0.0, 1, 1,15,0.0, 1, 1,15
325,107751366.434442,0.0, 2,19,15,75563.8274412213,23, 6,60
408,103312071.467582,0.0, 1, 1,15,166632.373334809, 1, 7,15
461,62089590.4860225,0.0, 1, 1,15,100144.500783907, 1, 7,15
4,59, 2
8,46551773.5246988,7056.14998858617, 1, 9,15,23520.4999619539, 1, 1,15
9,27977181.3059968,4240.68027071494, 1, 9,15,14135.6009023832, 1, 1,15
71,31204464.0619129,0.0, 1, 1,15,42054.5337761628, 1,20,15
93,18753591.5930978,0.0, 1, 1,15,25274.3822009405, 1,20,15
125,37776986.9120731,6007.79053945183, 1, 1,15,30038.9526972592, 1,19,15
137,22703616.468502,3610.62602870579, 1, 1,15,18053.1301435289, 1,19,15
138,178554369.124721,0.0, 1, 1,15,290074.715155451,18,13,30
139,0.0,0.0, 1, 1,15,0.0, 1, 1,15
140,18.6228365413497,17.2736794060073, 8, 6,60,20.9002347349443,27,16,15
141,19.8283909934655,19.5036342236608,10, 7,60,20.4796338538732,27,23,30
142,20.0078678936486,19.9999999999998, 4, 4,15,20.5892458840227,27,15,60
143,19.3153522174991,18.6368397030037, 8, 6,60,20.7438639121451,27,16,15
144,20.0237930162893,19.9999999999999, 9, 9,15,20.7035656030644,23,20,45
145,19.9260920048774,19.7518171118304,10, 7,60,20.5487357771676,27,20,60
146,167572670.606268,14561.149529013,23,19,45,100332.17786727, 8, 6,60
147,0.0,0.0, 1, 1,15,0.0, 1, 1,15
148,0.374792147550134,0.358296994670382,24,15,60,0.390260231113721, 8, 6,60
149,100871034.389014,9404.59276080968,23,18,60,60266.9367548011, 8, 6,60
150,0.0,0.0, 1, 1,15,0.0, 1, 1,15
151,0.374811591100005,0.358006188803547,23,15,60,0.390260886302208, 8, 6,60
224,20.0078678936486,19.9999999999998, 4, 4,15,20.5892458840227,27,15,60
225,18.4431257644855,6.46416069551716, 9,17,60,37.9702350021436, 3,22,15
258,20.0237930162893,19.9999999999999, 9, 9,15,20.7035656030644,23,20,45
259,18.4684676994281,6.12236079717557, 9,17,60,38.3731058103222, 3,21,60
260,445688828.113241,0.0,23,13,60,359068.212286292, 8, 6,60
291,0.0,0.0, 1, 1,15,0.0, 1, 1,15
322,445688828.113251,0.0,23,13,60,359068.212286303, 8, 6,60
323,71631715.5931574,0.0, 2,20,30,66119.8618969896, 8, 6,60
324,0.0,0.0, 1, 1,15,0.0, 1, 1,15
325,71631715.5931596,0.0, 2,20,30,66119.8618969928, 8, 6,60
408,93314129.0674935,0.0, 1, 1,15,166632.373334809, 1, 7,15
461,56080920.4389881,0.0, 1, 1,15,100144.500783907, 1, 7,15
4,90, 3
8,51378180.1168917,7056.14998858617, 1, 9,15,23520.4999619539, 1, 1,15
9,30877806.6111658,4240.68027071494, 1, 9,15,14135.6009023832, 1, 1,15
71,34673963.0984463,0.0, 1, 1,15,42054.5337761628, 1,20,15
93,20838728.1246754,0.0, 1, 1,15,25274.3822009405, 1,20,15
125,41886315.6410581,6007.79053945183, 1, 1,15,30038.9526972592, 1,19,15
137,25173284.6721367,3610.62602870579, 1, 1,15,18053.1301435289, 1,19,15
138,280936807.622816,0.0, 1, 1,15,404148.951146423,23, 7,45
139,0.0,0.0, 1, 1,15,0.0, 1, 1,15
140,19.6935922471791,17.6170893894374, 8, 6,60,22.6415609206331,20,16,15
141,20.3490621652315,19.5905986017992, 8, 7,60,21.7709318785418,30,22,60
142,20.2576743553529,19.9999999999998,28, 3,45,22.6855905781756,30,18,30
143,19.975633301266,18.8085446947187, 8, 6,60,22.5823820660501,30,18,30
144,20.3046434776464,19.9999999999999, 7, 6,30,21.9638350704855,30,21,60
145,20.3268528214389,19.7952993008996, 8, 7,60,21.8607238457731,30,22,60
146,137804743.869082,3768.82627413058,19,19,60,81980.9592374787, 8, 6,60
147,0.0,0.0, 1, 1,15,0.0, 1, 1,15
148,0.367878644199145,0.354265283266534,19,15,60,0.383275816244959, 8, 6,60
149,83257646.4948192,1898.01192750625,19,19,60,49557.7318014135, 8, 6,60
150,0.0,0.0, 1, 1,15,0.0, 1, 1,15
151,0.367939154070507,0.35291881353136,19,15,60,0.383269833012833, 8, 6,60
224,20.2576743553529,19.9999999999998,28, 3,45,22.6855905781756,30,18,30
225,23.2999304090263,8.71883011392644, 7,17,60,40.6266881611968,31,20,30
258,20.3046434776464,19.9999999999999, 7, 6,30,21.9638350704855,30,21,60
259,23.2783167835743,8.47052833415816, 7,17,60,38.6542244019853,31,19,15
260,230509452.601176,0.0, 1,12,60,294901.15333291, 8, 6,60
291,0.0,0.0, 1, 1,15,0.0, 1, 1,15
322,230509452.601182,0.0, 1,12,60,294901.153332911, 8, 6,60
323,25508235.98862,0.0, 1,19,15,51344.8127096477, 8, 6,60
324,0.0,0.0, 1, 1,15,0.0, 1, 1,15
325,25508235.9886208,0.0, 1,19,15,51344.8127096477, 8, 6,60
408,103312071.467582,0.0, 1, 1,15,166632.373334809, 1, 7,15
461,62089590.4860225,0.0, 1, 1,15,100144.500783907, 1, 7,15
4,120, 4
8,50145705.9188853,7056.14998858617, 1,15,15,23520.4999619539, 1, 1,15
9,30137101.123881,4240.68027071494, 1,15,15,14135.6009023832, 1, 1,15
71,33223081.6831687,0.0, 1, 1,15,42054.5337761628, 1,19,15
93,19966761.938743,0.0, 1, 1,15,25274.3822009405, 1,19,15
125,40372352.4251162,6007.79053945183, 1, 1,15,30038.9526972592, 1,19,15
137,24263406.9129028,3610.62602870579, 1, 1,15,18053.1301435289, 1,19,15
138,334807456.083038,0.0, 1, 1,15,610407.127188224,29, 7,45
139,0.0,0.0, 1, 1,15,0.0, 1, 1,15
140,22.7643553513426,18.1444521999943, 1, 7,15,28.7514327677561,13,16,30
141,23.0529410694418,19.9263795223376, 2, 7,60,27.5275108906917,13,22,60
142,22.669009130427,19.9999999999999,26, 4,45,28.6082925003204,11,18,30
143,22.7166822408847,19.0722260999971, 1, 7,15,28.5835766697222,13,16,30
144,22.9513676253576,20., 2, 6,60,27.6611394475123,13,21,60
145,23.0021543473997,19.9631897611688, 2, 7,60,27.5796266760016,13,21,60
146,102688754.0242,0.0,19,19,45,66076.7211889913, 1, 1,60
147,9071.47267614479,0.0, 1, 1,15,6703.77812909893,19,19,60
148,0.362588143594297,0.352016396943129, 9,15,60,0.37237316674778, 1, 4,60
149,63669496.9121279,0.0, 7,19,60,39891.61023257, 1, 1,60
150,44024.1206353872,0.0, 1, 1,15,8076.15918748323,19,19,60
151,0.362945018647036,0.349363488171315,19,12,60,0.372515586496959, 1, 2,60
224,22.669009130427,19.9999999999999,26, 4,45,28.6082925003204,11,18,30
225,34.0091329969174,15.7420142106933,18,17,15,62.3448396004275,20,23,45
258,22.9513676253576,20., 2, 6,60,27.6611394475123,13,21,60
259,33.2607900970745,17.0790645248424,18,18,15,55.0276287730599,25, 1,60
260,37072715.6873043,0.0, 1,12,45,212011.895849913, 1, 7,15
291,0.0,0.0, 1, 1,15,0.0, 1, 1,15
322,37072715.6873053,0.0, 1,12,45,212011.89584993, 1, 7,15
323,840306.509561854,0.0, 1, 1,15,22818.3910585983, 2, 6,60
324,0.0,0.0, 1, 1,15,0.0, 1, 1,15
325,840306.509561883,0.0, 1, 1,15,22818.3910585999, 2, 6,60
408,99979424.0008859,0.0, 1, 1,15,166632.373334809, 1, 6,15
461,60086700.4703443,0.0, 1, 1,15,100144.500783907, 1, 6,15
4,151, 5
8,51378180.1168917,7056.14998858617, 1, 8,15,23520.4999619539, 1, 1,15
9,30877806.6111658,4240.68027071494, 1, 8,15,14135.6009023832, 1, 1,15
71,34673963.0984463,0.0, 1, 1,15,42054.5337761628, 1,19,15
93,20838728.1246754,0.0, 1, 1,15,25274.3822009405, 1,19,15
125,41886315.641058,6007.79053945183, 1, 1,15,30038.9526972592, 1,18,15
137,25173284.6721367,3610.62602870579, 1, 1,15,18053.1301435289, 1,18,15
138,380023678.795404,0.0, 1, 1,15,736943.569502828,31, 7,45
139,0.0,0.0, 1, 1,15,0.0, 1, 1,15
140,27.5673991854222,20.9779937242824, 3, 7,15,35.5822500301449,26,16,60
141,27.7288092502246,23.5662359915174, 4, 8,15,33.6843481599189,26,22,60
142,27.3158729235467,20.5996168885954, 3, 6,60,35.2825314243089,26,17,15
143,27.4416360544844,20.7946019212652, 3, 6,60,35.4290946966614,26,16,45
144,27.6320439840429,23.2970038745468, 4, 9,30,33.7823273225899,26,21,60
145,27.6804266171338,23.4425722662943, 4, 8,30,33.7111930049309,26,22,60
146,106280427.26172,0.0,11,18,60,67125.0137103912,17, 5,60
147,22949.7164364871,0.0, 1, 1,15,4897.99016372061,11,18,60
148,0.361264998508606,0.352232360533,23,15,60,0.368278445599966,18,21,52
149,66337548.4167678,0.0, 8,18,60,44798.5889795832,17, 5,60
150,38560.1973815097,0.0, 1, 1,15,6027.04858259054,11,18,60
151,0.361661074645115,0.349405950511735,23,15,60,0.370355696231624, 6, 6,60
224,27.3158729235467,20.5996168885954, 3, 6,60,35.2825314243089,26,17,15
225,39.3756047338153,18.377552783927, 8,16,60,65.1082947240602,29, 4,30
258,27.6320439840429,23.2970038745468, 4, 9,30,33.7823273225899,26,21,60
259,38.3344553558731,20.5380817072549, 8,17,15,60.3509585396974,28,15,30
260,0.0,0.0, 1, 1,15,0.0, 1, 1,15
291,0.0,0.0, 1, 1,15,0.0, 1, 1,15
322,0.0,0.0, 1, 1,15,0.0, 1, 1,15
323,0.0,0.0, 1, 1,15,0.0, 1, 1,15
324,0.0,0.0, 1, 1,15,0.0, 1, 1,15
325,0.0,0.0, 1, 1,15,0.0, 1, 1,15
408,103312071.467582,0.0, 1, 1,15,166632.373334809, 1, 6,15
461,62089590.4860225,0.0, 1, 1,15,100144.500783907, 1, 6,15
4,181, 6
8,49769377.9194941,7056.14998858617, 1, 8,15,23520.4999619539, 1, 1,15
9,29910931.5094428,4240.68027071494, 1, 8,15,14135.6009023832, 1, 1,15
71,33517463.4196018,0.0, 1, 1,15,42054.5337761628, 1,19,15
93,20143682.6141496,0.0, 1, 1,15,25274.3822009405, 1,19,15
125,40516539.3980631,6007.79053945183, 1, 1,15,30038.9526972592, 1,18,15
137,24350061.9375918,3610.62602870579, 1, 1,15,18053.1301435289, 1,18,15
138,408789237.278713,0.0, 1, 1,15,855889.904628376, 8, 7,60
139,0.0,0.0, 1, 1,15,0.0, 1, 1,15
140,33.130723635118,26.6592394591834, 1, 6,45,39.8030038415348,11,16,30
141,33.0541009664128,28.5905923325411, 1, 7,60,37.8152487571482,11,22,60
142,32.8450399044619,26.2045278073585, 1, 5,60,39.3793584997788,11,16,30
143,32.98788176979,26.4608298272396, 1, 6,15,39.5911811706568,11,16,30
144,32.9189930834674,28.3223582583698, 1, 8,30,37.8865185577023,11,20,60
145,32.9865470249401,28.4696407851174, 1, 8,30,37.8022431029943,11,22,15
146,116084648.460859,6141.31332799766, 1,15,60,60839.1774289825,11, 9,45
147,0.0,0.0, 1, 1,15,0.0, 1, 1,15
148,0.361391272225887,0.35471602498964,15,15,60,0.368935958706935,12, 3,22
149,70946045.4716773,0.0, 1,15,60,43055.5598304162,12, 7,15
150,335.961285480604,0.0, 1, 1,15,335.961285480604, 1,15,60
151,0.361490930836679,0.352842170695928,15,15,60,0.371819544774911,12, 6,45
224,32.8450399044619,26.2045278073585, 1, 5,60,39.3793584997788,11,16,30
225,41.7848738695639,16.6148037235858, 1,15,15,69.2319080566773,14, 5,60
258,32.9189930834674,28.3126184948691, 1, 8,20,37.8865185577023,11,20,60
259,41.2692150515743,18.6107919609784, 1,15,15,63.199346664558,14, 5,60
260,0.0,0.0, 1, 1,15,0.0, 1, 1,15
291,0.0,0.0, 1, 1,15,0.0, 1, 1,15
322,0.0,0.0, 1, 1,15,0.0, 1, 1,15
323,0.0,0.0, 1, 1,15,0.0, 1, 1,15
324,0.0,0.0, 1, 1,15,0.0, 1, 1,15
325,0.0,0.0, 1, 1,15,0.0, 1, 1,15
408,99979424.0008859,0.0, 1, 1,15,166632.373334809, 1, 6,15
461,60086700.4703443,0.0, 1, 1,15,100144.500783907, 1, 6,15
4,212, 7
8,51754508.1162829,7056.14998858617, 1,15,15,23520.4999619539, 1, 1,15
9,31103976.225604,4240.68027071494, 1,15,15,14135.6009023832, 1, 1,15
71,34379581.3620132,0.0, 1, 1,15,42054.5337761628, 1,19,15
93,20661807.4492688,0.0, 1, 1,15,25274.3822009405, 1,19,15
125,41742128.6681112,6007.79053945183, 1, 1,15,30038.9526972592, 1,19,15
137,25086629.6474477,3610.62602870579, 1, 1,15,18053.1301435289, 1,19,15
138,334599772.441435,0.0, 1, 1,15,724356.433883045,12, 8,15
139,0.0,0.0, 1, 1,15,0.0, 1, 1,15
140,26.7254291795475,24.0179812819122,12, 6,30,35.0414891666748, 1,14,15
141,25.7368390452415,24.5541985018399,17,22,15,32.7346851071192, 1, 1,15
142,25.8541847730035,23.9184414371502, 3,14,15,34.8309999971222, 1,13,60
143,26.2898069762755,24.0673397222569,12, 4,30,34.8918104340034, 1,13,60
144,25.3470318543996,23.9562977106729, 3,14,15,32.5942883426697, 1,13,60
145,25.5419354498205,24.2806453855198,17,21,60,32.5811008623204, 1, 1,15
146,25990537.6110832,0.0, 1,14, 2,39866.3195823106, 1, 9,45
147,23141218.2150423,0.0, 1, 1,15,50889.6700630162,30,14,45
148,0.350499941092568,0.341343904950512,20,15,60,0.360723479413245, 1, 9,22
149,13189569.1551114,0.0, 1,14, 2,27621.5167450221, 1, 3,60
150,13753565.1129713,0.0, 1, 1,15,29939.5030282577,31,15,60
151,0.349907527556125,0.341337108296818,20,15,60,0.361754793193356, 1, 3,60
224,25.8541847730035,23.4228481027021,30,14, 3,34.8309999971222, 1,13,60
225,72.091116780736,45.1562172733477,12,13,60,91.0537982038022, 2,14, 3
258,25.3470318543996,23.5627004171182, 7,14, 3,32.5942883426697, 1,13,60
259,74.1627562936586,53.2598210278652, 1,13,60,90.8225483688649, 2,14, 3
260,0.0,0.0, 1, 1,15,0.0, 1, 1,15
291,355030061.738359,0.0, 1, 1,15,1371199.21409755, 1,14,45
322,3.473270128649476E-006,0.0, 1, 1,15,7.448761607520282E-008,26,14,45
323,0.0,0.0, 1, 1,15,0.0, 1, 1,15
324,136387120.41293,0.0, 1, 1,15,738819.790626371, 1,14,45
325,8.687407364910930E-007,0.0, 1, 1,15,5.801439328934066E-008, 1,14,45
408,103312071.467582,0.0, 1, 1,15,166632.373334809, 1, 6,15
461,62089590.4860225,0.0, 1, 1,15,100144.500783907, 1, 6,15
4,243, 8
8,51378180.1168917,7056.14998858617, 1, 8,15,23520.4999619539, 1, 1,15
9,30877806.6111658,4240.68027071494, 1, 8,15,14135.6009023832, 1, 1,15
71,34673963.0984463,0.0, 1, 1,15,42054.5337761628, 1,19,15
93,20838728.1246754,0.0, 1, 1,15,25274.3822009405, 1,19,15
125,41886315.641058,6007.79053945183, 1, 1,15,30038.9526972592, 1,18,15
137,25173284.6721367,3610.62602870579, 1, 1,15,18053.1301435289, 1,18,15
138,339459799.18501,0.0, 1, 1,15,624275.585215894, 7, 8,15
139,0.0,0.0, 1, 1,15,0.0, 1, 1,15
140,26.695326255815,23.2168740237414,26, 6,60,32.3144008653194, 7,14,15
141,25.6215031025844,24.4339306534549,26, 7,60,27.9540145192804, 7,14,15
142,25.7986322685171,23.0226905778564,26, 6,60,32.3199252247124, 7,13,60
143,26.246979262166,23.1197823007989,26, 6,60,32.2654656047952, 7,13,60
144,25.2455326164605,23.9508500524525,25,14,15,28.2015585360763, 7,13,60
145,25.4335178595224,24.3548238702477,26,21,60,28.0378476592785, 7,13,60
146,25699837.7764517,0.0, 1,14, 1,32595.8150111463,27,11,60
147,24831347.4328043,0.0, 1, 1,15,52416.5994723471, 7,15,60
148,0.349862362159519,0.33892610164708, 7,15,60,0.356758522470562,25,13,60
149,12920997.6289993,0.0, 1,13,15,19826.6971441812,26, 6,60
150,14929475.1797808,0.0, 1, 1,15,31114.8619195676, 7,15,60
151,0.349218893379899,0.338918262934036, 7,15,60,0.357622488294351,28, 6,60
224,25.7986322685171,23.0226905778564,26, 6,60,32.3199252247124, 7,13,60
225,71.009344178294,47.4173710285411,30,13,60,93.3710463482911, 2, 5,60
258,25.2455326164605,23.5611904749592, 9,14, 3,28.2015585360763, 7,13,60
259,73.2945937144085,55.3043300961354,30,13,60,94.0360438535965, 2, 5,60
260,0.0,0.0, 1, 1,15,0.0, 1, 1,15
291,363289064.077202,0.0, 1, 1,15,990518.143414442, 7,14,45
322,3.308010108262558E-006,0.0, 1, 1,15,8.840288501232863E-008,15,14,45
323,0.0,0.0, 1, 1,15,0.0, 1, 1,15
324,133321655.019068,0.0, 1, 1,15,318394.015035878, 7,14, 1
325,8.196990238089216E-007,0.0, 1, 1,15,2.343085725442506E-008, 6,14,45
408,103312071.467582,0.0, 1, 1,15,166632.373334809, 1, 6,15
461,62089590.4860225,0.0, 1, 1,15,100144.500783907, 1, 6,15
4,273, 9
8,49957541.9191897,7056.14998858617, 1, 8,15,23520.4999619539, 1, 1,15
9,30024016.3166619,4240.68027071494, 1, 8,15,14135.6009023832, 1, 1,15
71,33370272.5513853,0.0, 1, 1,15,42054.5337761628, 1,19,15
93,20055222.2764463,0.0, 1, 1,15,25274.3822009405, 1,19,15
125,40444445.9115897,6007.79053945183, 1, 1,15,30038.9526972592, 1,18,15
137,24306734.4252473,3610.62602870579, 1, 1,15,18053.1301435289, 1,18,15
138,267327253.406333,0.0, 1, 1,15,403931.836284724,10, 7,45
139,0.0,0.0, 1, 1,15,0.0, 1, 1,15
140,25.1713978032517,22.3987567593274,30, 7,30,29.2586676173443, 7,14,15
141,24.8761956821141,23.8831499758641,30, 8,15,26.3237026754674, 8,14,15
142,24.5661236144647,22.1646999672197,30, 7,30,29.2204788701814, 7,13,60
143,24.8687607088582,22.2817283632735,30, 7,30,29.1664706046066, 7,13,60
144,24.6333003990414,23.7669218634342,30, 7,60,26.5078135522017, 8,13,60
145,24.7547480405778,23.8295657175674,30, 7,60,26.3884856705042, 8,13,60
146,44191112.4422993,0.0, 1,14, 1,47526.6649832888,15,24,60
147,2795967.29029472,0.0, 1, 1,15,27562.6603431925,20,18,60
148,0.353303843234763,0.342377701594313, 6,15,60,0.361190528912231,30,24,60
149,26973134.9257225,0.0, 1,12,60,29183.5633144312,15,24,60
150,1673424.24918518,0.0, 1, 1,15,17204.9768153296,20,18,60
151,0.353389199138674,0.342381649778243, 6,15,60,0.362373393306659,30,24,60
224,24.5661236144647,22.1646999672197,30, 7,30,29.2204788701814, 7,13,60
225,62.7055063112145,34.1834085182388,16,13,60,88.9374280055106, 9, 6,60
258,24.6333003990414,23.6120851640492, 1,14, 2,26.5078135522017, 8,13,60
259,62.3690894457265,37.6255805130179,16,22,30,85.9269764986448, 9, 6,60
260,0.0,0.0, 1, 1,15,0.0, 1, 1,15
291,186088769.706916,0.0, 1, 1,15,590153.017575663, 7,14,45
322,3.562767333909500E-006,0.0, 1, 1,15,5.402398528531194E-008, 6,16,15
323,0.0,0.0, 1, 1,15,0.0, 1, 1,15
324,65591675.7856465,0.0, 1, 1,15,184552.084498485, 8,14,45
325,1.309113955939766E-006,0.0, 1, 1,15,1.529656401544344E-008, 9,14,45
408,99979424.0008859,0.0, 1, 1,15,166632.373334809, 1, 6,15
461,60086700.4703443,0.0, 1, 1,15,100144.500783907, 1, 6,15
4,304,10
8,51566344.1165873,7056.14998858617, 1,15,15,23520.4999619539, 1, 1,15
9,30990891.4183849,4240.68027071494, 1,15,15,14135.6009023832, 1, 1,15
71,34526772.2302298,0.0, 1, 1,15,42054.5337761628, 1,19,15
93,20750267.7869721,0.0, 1, 1,15,25274.3822009405, 1,19,15
125,41814222.1545846,6007.79053945183, 1, 1,15,30038.9526972592, 1,19,15
137,25129957.1597922,3610.62602870579, 1, 1,15,18053.1301435289, 1,19,15
138,204407726.272786,0.0, 1, 1,15,294854.95166887,10,12,30
139,0.0,0.0, 1, 1,15,0.0, 1, 1,15
140,22.6300413382697,18.5035343334435,24, 7,30,27.8196302635825, 7,16,15
141,23.2896805483519,20.2828353113852,25,10,15,27.1747379912991, 7,22,60
142,22.6445931097926,19.9999999999999,25, 5,30,27.6959223841503, 7,14,60
143,22.6373172240311,19.2517671667218,24, 7,30,27.7429495373091, 7,16,15
144,23.3004034698351,20.0673589250987,31,12,30,27.4665481120293, 7,22,60
145,23.2950420090935,20.1941336960235,25,11,30,27.3206430516642, 7,22,60
146,80883546.604969,0.0,14,18,45,55346.7194241187,24, 3,60
147,36497.6359288031,0.0, 1, 1,15,12668.5824201703,14,18,60
148,0.358779826876793,0.350679929450488,22,15,60,0.369287704916051,24, 6,60
149,52759114.3229646,0.0,14,18,30,35641.9573215327,15,24,60
150,26917.05788248,0.0, 1, 1,15,8267.9807768111,14,18,60
151,0.359579171922638,0.349193908447793,22,15,60,0.370053159153759,24, 6,60
224,22.6445931097926,19.9999999999999,25, 5,30,27.6959223841503, 7,14,60
225,43.6593404999782,19.1901176381119,19,15,45,70.442594024837,28,23,45
258,23.3004034698351,20.0673589250987,31,12,30,27.4665481120293, 7,22,60
259,42.1740352331852,19.4257443222203,19,15,30,66.1263310188713,28,24,30
260,24756932.7485195,0.0, 1, 1,15,150583.125058686,24, 6,60
291,0.0,0.0, 1, 1,15,0.0, 1, 1,15
322,24756932.7485202,0.0, 1, 1,15,150583.125058686,24, 6,60
323,0.0,0.0, 1, 1,15,0.0, 1, 1,15
324,0.0,0.0, 1, 1,15,0.0, 1, 1,15
325,0.0,0.0, 1, 1,15,0.0, 1, 1,15
408,103312071.467582,0.0, 1, 1,15,166632.373334809, 1, 6,15
461,62089590.4860225,0.0, 1, 1,15,100144.500783907, 1, 6,15
4,334,11
8,49769377.9194941,7056.14998858617, 1, 9,15,23520.4999619539, 1, 1,15
9,29910931.5094428,4240.68027071494, 1, 9,15,14135.6009023832, 1, 1,15
71,33517463.4196018,0.0, 1, 1,15,42054.5337761628, 1,20,15
93,20143682.6141495,0.0, 1, 1,15,25274.3822009405, 1,20,15
125,40516539.3980631,6007.79053945183, 1, 1,15,30038.9526972592, 1,19,15
137,24350061.9375918,3610.62602870579, 1, 1,15,18053.1301435289, 1,19,15
138,149049698.782402,0.0, 1, 1,15,225693.153209475,15,12,30
139,0.0,0.0, 1, 1,15,0.0, 1, 1,15
140,19.1802995589082,17.4634484291892,27, 7,60,22.0904020882621, 7,16,30
141,20.125022628196,19.5439311119178,27, 7,60,21.8758008229838, 7,24,30
142,20.1157616699982,19.9999999999998, 9, 5,45,22.1291249983772, 7,16,30
143,19.6480306144532,18.7317242145946,27, 7,60,22.1097635433196, 7,16,30
144,20.233576220663,19.9999999999999,27, 4,15,22.2481657904209, 7,23,60
145,20.1792994244295,19.7719655559589,27, 7,60,22.0607979378596, 7,23,60
146,116778856.445281,3746.49072934885, 7,13,60,81646.3607787226,30,24,60
147,0.0,0.0, 1, 1,15,0.0, 1, 1,15
148,0.365292490522349,0.351064682862142, 6,15,60,0.380823533481679,23, 8,60
149,70814411.1566025,1523.64960927132, 7,13,60,47995.4364929652,23, 7,60
150,0.0,0.0, 1, 1,15,0.0, 1, 1,15
151,0.365438140226007,0.350067848316404, 6,15,60,0.380833043877255,23, 8,60
224,20.1157616699982,19.9999999999998, 9, 5,45,22.1291249983772, 7,16,30
225,37.1019193504963,15.9608045485398,23,14,30,62.1932490905326,19,11,60
258,20.233576220663,19.9999999999999,27, 4,15,22.2481657904209, 7,23,60
259,36.7900841354385,15.4203085548485,23,13,30,61.9744805988722,19,12,45
260,278340115.531348,0.0, 1,11,60,300727.331905035,27, 6,60
291,0.0,0.0, 1, 1,15,0.0, 1, 1,15
322,278340115.531355,0.0, 1,11,60,300727.331905049,27, 6,60
323,30175303.7294418,0.0, 1, 1,15,46696.6271996406,23, 6,60
324,0.0,0.0, 1, 1,15,0.0, 1, 1,15
325,30175303.7294428,0.0, 1, 1,15,46696.6271996418,23, 6,60
408,99979424.0008859,0.0, 1, 1,15,166632.373334809, 1, 7,15
461,60086700.4703443,0.0, 1, 1,15,100144.500783907, 1, 7,15
4,365,12
8,51754508.1162829,7056.14998858617, 1, 9,15,23520.4999619539, 1, 1,15
9,31103976.2256039,4240.68027071494, 1, 9,15,14135.6009023832, 1, 1,15
71,34379581.3620132,0.0, 1, 1,15,42054.5337761628, 1,20,15
93,20661807.4492688,0.0, 1, 1,15,25274.3822009405, 1,20,15
125,41742128.6681112,6007.79053945183, 1, 1,15,30038.9526972592, 1,19,15
137,25086629.6474477,3610.62602870579, 1, 1,15,18053.1301435289, 1,19,15
138,138871807.773935,0.0, 1, 1,15,214144.111308458,19,12,30
139,0.0,0.0, 1, 1,15,0.0, 1, 1,15
140,18.2975364215943,17.0709975981654,16, 8,30,19.9421894851116,29,15,30
141,19.7132767612194,19.4110399246074,16, 8,60,20.0806843939106,29,23,30
142,20.,19.9999999999998, 1, 1,30,20.0000000000002,31, 7,15
143,19.1487682107971,18.5354987990827,16, 8,30,19.9710947425558,29,15,30
144,20.003709171194,19.9999999999999,17, 6,45,20.2641975407783,29,20,45
145,19.8584929662067,19.7055199623037,16, 8,60,20.1455246373778,29,20,60
146,195913938.937731,28600.1512948566,11,15,60,111143.863648581,31, 9,60
147,0.0,0.0, 1, 1,15,0.0, 1, 1,15
148,0.376170640354423,0.361405078443137,29,15,60,0.394325082603838,31,24,60
149,117746086.13424,17387.5847734468,11,15,60,66547.6826518742,31, 9,60
150,0.0,0.0, 1, 1,15,0.0, 1, 1,15
151,0.3761753959668,0.361405933943334,29,15,60,0.394323178463758,31,24,60
224,20.,19.9999999999998, 1, 1,30,20.0000000000002,31, 7,15
225,20.290620289812,7.90814210206436,16,19,60,40.2012261319392,25, 4,30
258,20.003709171194,19.9999999999999,17, 6,45,20.2641975407783,29,20,45
259,20.2762031664048,7.43659941457143,16,19,60,40.8300634999701,25, 4,15
260,587881518.483541,30836.7711069697,29,15,45,388375.842937749,18, 6,60
291,0.0,0.0, 1, 1,15,0.0, 1, 1,15
322,587881518.483553,30836.7711069702,29,15,45,388375.842937751,18, 6,60
323,95697383.4677834,0.0, 7,20,15,72516.428531793,17, 7,45
324,0.0,0.0, 1, 1,15,0.0, 1, 1,15
325,95697383.4677863,0.0, 7,20,15,72516.4285317941,17, 7,45
408,103312071.467582,0.0, 1, 1,15,166632.373334809, 1, 7,15
461,62089590.4860225,0.0, 1, 1,15,100144.500783907, 1, 7,15
End of Data
 Number of Records Written=         384
