Program Version,EnergyPlus, Version 8.4.0-09f5359d8a, YMD=2023.08.02 14:39
1,5,Environment Title[],Latitude[deg],Longitude[deg],Time Zone[],Elevation[m]
2,6,Day of Simulation[],Month[],Day of Month[],DST Indicator[1=yes 0=no],Hour[],StartMinute[],EndMinute[],DayType
3,3,Cumulative Day of Simulation[],Month[],Day of Month[],DST Indicator[1=yes 0=no],DayType  ! When Daily Report Variables Requested
4,2,Cumulative Days of Simulation[],Month[]  ! When Monthly Report Variables Requested
5,1,Cumulative Days of Simulation[] ! When Run Period Report Variables Requested
8,9,PERIM,Zone People Total Heating Energy [J] !Monthly  [Value,Min,Day,Hour,Minute,Max,Day,Hour,Minute]
9,9,CORE,Zone People Total Heating Energy [J] !Monthly  [Value,Min,Day,Hour,Minute,Max,Day,Hour,Minute]
71,9,PERIM,Zone Lights Electric Energy [J] !Monthly  [Value,Min,Day,Hour,Minute,Max,Day,Hour,Minute]
93,9,CORE,Zone Lights Electric Energy [J] !Monthly  [Value,Min,Day,Hour,Minute,Max,Day,Hour,Minute]
125,9,PERIM,Zone Electric Equipment Electric Energy [J] !Monthly  [Value,Min,Day,Hour,Minute,Max,Day,Hour,Minute]
137,9,CORE,Zone Electric Equipment Electric Energy [J] !Monthly  [Value,Min,Day,Hour,Minute,Max,Day,Hour,Minute]
138,9,PERIM,Zone Windows Total Transmitted Solar Radiation Energy [J] !Monthly  [Value,Min,Day,Hour,Minute,Max,Day,Hour,Minute]
139,9,CORE,Zone Windows Total Transmitted Solar Radiation Energy [J] !Monthly  [Value,Min,Day,Hour,Minute,Max,Day,Hour,Minute]
140,9,PERIM,Zone Mean Radiant Temperature [C] !Monthly [Value,Min,Day,Hour,Minute,Max,Day,Hour,Minute]
141,9,CORE,Zone Mean Radiant Temperature [C] !Monthly [Value,Min,Day,Hour,Minute,Max,Day,Hour,Minute]
142,9,PERIM,Zone Mean Air Temperature [C] !Monthly [Value,Min,Day,Hour,Minute,Max,Day,Hour,Minute]
143,9,PERIM,Zone Operative Temperature [C] !Monthly [Value,Min,Day,Hour,Minute,Max,Day,Hour,Minute]
144,9,CORE,Zone Mean Air Temperature [C] !Monthly [Value,Min,Day,Hour,Minute,Max,Day,Hour,Minute]
145,9,CORE,Zone Operative Temperature [C] !Monthly [Value,Min,Day,Hour,Minute,Max,Day,Hour,Minute]
146,9,PERIM,Zone Infiltration Total Heat Loss Energy [J] !Monthly  [Value,Min,Day,Hour,Minute,Max,Day,Hour,Minute]
147,9,PERIM,Zone Infiltration Total Heat Gain Energy [J] !Monthly  [Value,Min,Day,Hour,Minute,Max,Day,Hour,Minute]
148,9,PERIM,Zone Infiltration Air Change Rate [ach] !Monthly [Value,Min,Day,Hour,Minute,Max,Day,Hour,Minute]
149,9,CORE,Zone Infiltration Total Heat Loss Energy [J] !Monthly  [Value,Min,Day,Hour,Minute,Max,Day,Hour,Minute]
150,9,CORE,Zone Infiltration Total Heat Gain Energy [J] !Monthly  [Value,Min,Day,Hour,Minute,Max,Day,Hour,Minute]
151,9,CORE,Zone Infiltration Air Change Rate [ach] !Monthly [Value,Min,Day,Hour,Minute,Max,Day,Hour,Minute]
224,9,PERIM,Zone Air Temperature [C] !Monthly [Value,Min,Day,Hour,Minute,Max,Day,Hour,Minute]
225,9,PERIM,Zone Air Relative Humidity [%] !Monthly [Value,Min,Day,Hour,Minute,Max,Day,Hour,Minute]
258,9,CORE,Zone Air Temperature [C] !Monthly [Value,Min,Day,Hour,Minute,Max,Day,Hour,Minute]
259,9,CORE,Zone Air Relative Humidity [%] !Monthly [Value,Min,Day,Hour,Minute,Max,Day,Hour,Minute]
260,9,PERIM IDEAL LOADS AIR,Zone Ideal Loads Supply Air Total Heating Energy [J] !Monthly  [Value,Min,Day,Hour,Minute,Max,Day,Hour,Minute]
291,9,PERIM IDEAL LOADS AIR,Zone Ideal Loads Supply Air Total Cooling Energy [J] !Monthly  [Value,Min,Day,Hour,Minute,Max,Day,Hour,Minute]
322,9,PERIM IDEAL LOADS AIR,Zone Ideal Loads Zone Total Heating Energy [J] !Monthly  [Value,Min,Day,Hour,Minute,Max,Day,Hour,Minute]
323,9,CORE IDEAL LOADS AIR,Zone Ideal Loads Supply Air Total Heating Energy [J] !Monthly  [Value,Min,Day,Hour,Minute,Max,Day,Hour,Minute]
324,9,CORE IDEAL LOADS AIR,Zone Ideal Loads Supply Air Total Cooling Energy [J] !Monthly  [Value,Min,Day,Hour,Minute,Max,Day,Hour,Minute]
325,9,CORE IDEAL LOADS AIR,Zone Ideal Loads Zone Total Heating Energy [J] !Monthly  [Value,Min,Day,Hour,Minute,Max,Day,Hour,Minute]
408,9,DHW PERIM,Water Use Equipment Heating Energy [J] !Monthly  [Value,Min,Day,Hour,Minute,Max,Day,Hour,Minute]
461,9,DHW CORE,Water Use Equipment Heating Energy [J] !Monthly  [Value,Min,Day,Hour,Minute,Max,Day,Hour,Minute]
End of Data Dictionary
1,ARCHSIM,  37.57, 126.97,   9.00,  87.10
4,31, 1
8,51566344.1265105,7056.14998994401, 1,16,15,23520.49996648, 1, 1,15
9,30990891.4458,4240.68027446635, 1,16,15,14135.6009148878, 1, 1,15
71,34526772.2368737,0.0, 1, 1,15,42054.5337842555, 1,20,15
93,20750267.8053284,0.0, 1, 1,15,25274.3822232988, 1,20,15
125,41814222.162631,6007.79054060793, 1, 1,15,30038.9527030396, 1,20,15
137,25129957.1820228,3610.62603189983, 1, 1,15,18053.1301594991, 1,20,15
138,114011869.292891,0.0, 1, 1,15,178861.156335362,31,13,30
139,0.0,0.0, 1, 1,15,0.0, 1, 1,15
140,18.1404920708976,17.1114805839229,14, 8,45,19.5485911922384, 8,14,60
141,19.6667901524253,19.4113737934035,15, 8,60,19.9765606558399, 8,23,60
142,20.,19.9999999999998,23, 5,30,20.0000000000002,25, 4,60
143,19.0702460354488,18.5557402919614,14, 8,45,19.7742955961192, 8,14,60
144,20.0005818491823,19.9999999999999,24, 5,15,20.1055654132259, 8,20,45
145,19.8336860008038,19.7056868967017,15, 8,60,20.0168442107516, 8,21,60
146,212822422.254577,25721.0024902598, 6,15,60,109366.596148614,23, 6,60
147,0.0,0.0, 1, 1,15,0.0, 1, 1,15
148,0.37866365483111,0.361528298319621, 6,15,60,0.394065048788961,23, 6,60
149,127844748.19132,15411.5051751479, 6,15,60,65801.3288516096,23, 6,60
150,0.0,0.0, 1, 1,15,0.0, 1, 1,15
151,0.378664820878519,0.361529248443464, 6,15,60,0.39406354615215,23, 6,60
224,20.,19.9999999999998,23, 5,30,20.0000000000002,25, 4,60
225,17.6751048486175,6.89024664530826,14,19,60,34.9107331190364, 2,22,45
258,20.0005818491823,19.9999999999999,24, 5,15,20.1055654132259, 8,20,45
259,17.6416237337818,6.26474650087347,14,19,60,35.29254530562, 2,22,30
260,651446895.909879,43949.2620464795, 8,14,45,386958.770951831,23, 6,60
291,0.0,0.0, 1, 1,15,0.0, 1, 1,15
322,651446895.909891,43949.2620464806, 8,14,45,386958.770951831,23, 6,60
323,111366788.116118,0.0, 2,20,15,75573.8039340601,23, 6,60
324,0.0,0.0, 1, 1,15,0.0, 1, 1,15
325,111366788.116121,0.0, 2,20,15,75573.8039340601,23, 6,60
408,103312071.487463,0.0, 1, 1,15,166632.373366876, 1, 7,15
461,62089590.5409481,0.0, 1, 1,15,100144.500872497, 1, 7,15
4,59, 2
8,46551773.533657,7056.14998994401, 1, 9,15,23520.49996648, 1, 1,15
9,27977181.330746,4240.68027446635, 1, 9,15,14135.6009148878, 1, 1,15
71,31204464.0679175,0.0, 1, 1,15,42054.5337842555, 1,20,15
93,18753591.6096877,0.0, 1, 1,15,25274.3822232988, 1,20,15
125,37776986.9193426,6007.79054060793, 1, 1,15,30038.9527030396, 1,19,15
137,22703616.4885861,3610.62603189983, 1, 1,15,18053.1301594991, 1,19,15
138,133966683.129655,0.0, 1, 1,15,203874.577639139,27,13,15
139,0.0,0.0, 1, 1,15,0.0, 1, 1,15
140,18.5059370449215,17.3310325917758, 8, 6,60,20.3243160734752,28,15,60
141,19.7748541372159,19.5026751953005,11, 8,60,20.3052278323015,27,23,45
142,20.0001961015776,19.9999999999998,16, 1,30,20.0624659351442,23,16,15
143,19.2530665732496,18.6655162958879, 8, 6,60,20.1853376621914,28,15,60
144,20.015773410322,19.9999999999999, 9, 8,45,20.5452967068218,23,20,45
145,19.895313773769,19.7513375976502,11, 8,60,20.3818076817886,23,20,60
146,167844606.832227,14332.6877185539,23,19,30,100475.819840247, 8, 6,60
147,0.0,0.0, 1, 1,15,0.0, 1, 1,15
148,0.374834080160688,0.35806063724861,24,15,60,0.390315768087467, 8, 6,60
149,101013833.950741,9202.22070424015,23,18,60,60344.1590433757, 8, 6,60
150,0.0,0.0, 1, 1,15,0.0, 1, 1,15
151,0.374853046713282,0.358052537923006,23,15,60,0.390316615356039, 8, 6,60
224,20.0001961015776,19.9999999999998,16, 1,30,20.0624659351442,23,16,15
225,18.4552927191508,6.49975590949021, 9,17,60,37.9385165338775, 3,22,15
258,20.015773410322,19.9999999999999, 9, 8,45,20.5452967068218,23,20,45
259,18.4728134413578,6.12886238809415, 9,17,60,38.3648833066353, 3,21,60
260,463036114.402204,0.0,23,15,45,350936.428606937, 8, 6,60
291,0.0,0.0, 1, 1,15,0.0, 1, 1,15
322,463036114.402214,0.0,23,15,45,350936.428606943, 8, 6,60
323,76053654.9903949,0.0, 5,20,15,66343.298230461, 8, 6,60
324,0.0,0.0, 1, 1,15,0.0, 1, 1,15
325,76053654.9903973,0.0, 5,20,15,66343.2982304642, 8, 6,60
408,93314129.0854508,0.0, 1, 1,15,166632.373366876, 1, 7,15
461,56080920.4885984,0.0, 1, 1,15,100144.500872497, 1, 7,15
4,90, 3
8,51378180.1267786,7056.14998994401, 1, 9,15,23520.49996648, 1, 1,15
9,30877806.6384809,4240.68027446635, 1, 9,15,14135.6009148878, 1, 1,15
71,34673963.1051186,0.0, 1, 1,15,42054.5337842555, 1,20,15
93,20838728.1431099,0.0, 1, 1,15,25274.3822232988, 1,20,15
125,41886315.6491184,6007.79054060793, 1, 1,15,30038.9527030396, 1,19,15
137,25173284.6944056,3610.62603189983, 1, 1,15,18053.1301594991, 1,19,15
138,198587192.760175,0.0, 1, 1,15,241797.467390666,28,13,30
139,0.0,0.0, 1, 1,15,0.0, 1, 1,15
140,19.2805526785042,17.647534312513, 6, 7,30,21.4605623964855,19,16,45
141,20.0948321701737,19.57926897195, 8, 7,60,21.1133229636943,30,22,60
142,20.0740188504035,19.9999999999999, 1, 3,60,21.7004498423913,30,18,45
143,19.6772857644539,18.8237671562565, 6, 7,30,21.5284210216975,30,18,45
144,20.1350143506499,19.9999999999999, 2, 6,30,21.3394497166348,30,21,60
145,20.1149232604118,19.789634485975, 8, 7,60,21.2194246511047,30,22,60
146,136410532.115833,2737.75558336756,19,19,60,82103.9144425781, 8, 6,60
147,0.0,0.0, 1, 1,15,0.0, 1, 1,15
148,0.36770306919919,0.353725449640604,19,15,60,0.383329555388175, 8, 6,60
149,82434580.1403627,1404.46725749567,19,19,60,49627.5567040276, 8, 6,60
150,0.0,0.0, 1, 1,15,0.0, 1, 1,15
151,0.367779195740633,0.352671581748825,19,15,60,0.383323660526274, 8, 6,60
224,20.0740188504035,19.9999999999999, 1, 3,60,21.7004498423913,30,18,45
225,23.4988549619129,8.77847084716759, 7,17,60,41.7093208599142,31,19,30
258,20.1350143506499,19.9999999999999, 2, 6,30,21.3394497166348,30,21,60
259,23.4611126341637,8.4812790665864, 7,17,60,40.2946915942931,31,17,60
260,271573962.306496,0.0, 4,15,45,287282.254086825, 8, 6,60
291,0.0,0.0, 1, 1,15,0.0, 1, 1,15
322,271573962.306502,0.0, 4,15,45,287282.254086837, 8, 6,60
323,33616472.8872031,0.0, 1,20,15,52148.8742818898, 8, 6,60
324,0.0,0.0, 1, 1,15,0.0, 1, 1,15
325,33616472.8872043,0.0, 1,20,15,52148.8742818899, 8, 6,60
408,103312071.487463,0.0, 1, 1,15,166632.373366876, 1, 7,15
461,62089590.5409481,0.0, 1, 1,15,100144.500872497, 1, 7,15
4,120, 4
8,50145705.9285351,7056.14998994401, 1,15,15,23520.49996648, 1, 1,15
9,30137101.1505408,4240.68027446635, 1,15,15,14135.6009148878, 1, 1,15
71,33223081.6895618,0.0, 1, 1,15,42054.5337842555, 1,19,15
93,19966761.9564061,0.0, 1, 1,15,25274.3822232988, 1,19,15
125,40372352.4328852,6007.79054060793, 1, 1,15,30038.9527030396, 1,19,15
137,24263406.9343668,3610.62603189983, 1, 1,15,18053.1301594991, 1,19,15
138,223510290.027888,0.0, 1, 1,15,255422.84244887,19,12,30
139,0.0,0.0, 1, 1,15,0.0, 1, 1,15
140,21.4444016052936,18.0203913433344, 1, 7,15,26.4496934979428,11,18,60
141,21.9291560888595,19.8077316895926, 1, 8,60,25.7400348657643,12,22,60
142,21.5850634067409,19.9999999999998, 1, 1,30,26.92336561767,11,18,45
143,21.5147325060173,19.0101956716672, 1, 7,15,26.683652928616,11,18,45
144,21.9064722598827,20., 1, 6,60,25.9580480939906,12,21,60
145,21.9178141743711,19.9038658447963, 1, 8,60,25.8375584023482,12,22,60
146,92809984.8329246,0.0, 7,19,60,66515.7929987812, 1, 1,60
147,77331.8714916646,0.0, 1, 1,15,13100.2681224861,19,19,60
148,0.361323372589646,0.348946923261114,19,12,60,0.37242031569204, 1, 4,60
149,57738788.8408432,0.0, 7,19,45,39044.7480882705, 1, 1,60
150,119138.014351624,0.0, 1, 1,15,11752.7622956003,19,19,60
151,0.361723595502443,0.347644423074339,19,12,60,0.372440497337941, 1, 4,60
224,21.5850634067409,19.9999999999998, 1, 1,30,26.92336561767,11,18,45
225,35.718390175146,17.0479515110645,18,18,15,65.686089928877,20,23,45
258,21.9064722598827,20., 1, 6,60,25.9580480939906,12,21,60
259,34.8912954600496,18.2072568581225,18,18,15,59.2475185651256,25, 1,45
260,68125810.9358964,0.0, 1,19,15,224581.510253379, 1, 7,15
291,0.0,0.0, 1, 1,15,0.0, 1, 1,15
322,68125810.9358983,0.0, 1,19,15,224581.510253379, 1, 7,15
323,4184594.06053871,0.0, 1,19,15,27075.7441061353, 1, 7,60
324,0.0,0.0, 1, 1,15,0.0, 1, 1,15
325,4184594.06053887,0.0, 1,19,15,27075.7441061353, 1, 7,60
408,99979424.0201259,0.0, 1, 1,15,166632.373366876, 1, 6,15
461,60086700.5234982,0.0, 1, 1,15,100144.500872497, 1, 6,15
4,151, 5
8,51378180.1267786,7056.14998994401, 1, 8,15,23520.49996648, 1, 1,15
9,30877806.6384809,4240.68027446635, 1, 8,15,14135.6009148878, 1, 1,15
71,34673963.1051186,0.0, 1, 1,15,42054.5337842555, 1,19,15
93,20838728.1431099,0.0, 1, 1,15,25274.3822232988, 1,19,15
125,41886315.6491183,6007.79054060793, 1, 1,15,30038.9527030396, 1,18,15
137,25173284.6944056,3610.62603189983, 1, 1,15,18053.1301594991, 1,18,15
138,277728841.45388,0.0, 1, 1,15,405218.788777157,30,18,30
139,0.0,0.0, 1, 1,15,0.0, 1, 1,15
140,25.8261093396982,19.6329723296516, 3, 7,30,33.6215528893654,25,19,45
141,26.1431216873416,21.6145675717555, 4,11,45,32.1052892389398,26,22,60
142,25.6728429154847,19.3487979918697, 3, 6,60,34.0300132352044,25,19,30
143,25.7494761275914,19.503886133774, 3, 7,15,33.8215799906614,25,19,30
144,26.1135228267014,21.4516411470713, 4,11,30,32.3024305651932,26,21,60
145,26.1283222570215,21.5343768105922, 4,11,30,32.1884975862699,26,22,60
146,90109939.6194772,0.0,11,18,45,64616.5868281565,17, 5,60
147,49182.8781559077,0.0, 1, 1,15,8155.08106695496,11,18,60
148,0.359345014575708,0.34970244432002,23,15,60,0.365944665066508, 6, 6,60
149,57063445.2413421,0.0, 7,20,60,41836.6818072819,17, 5,60
150,122235.824790233,0.0, 1, 1,15,9065.97658745151,11,18,60
151,0.359889184733006,0.347496965712004,23,15,60,0.368483623967597, 6, 6,60
224,25.6728429154847,19.3487979918697, 3, 6,60,34.0300132352044,25,19,30
225,42.3800504969078,20.5458673942505, 8,18, 7,68.2978011653763,28,14,60
258,26.1135228267014,21.4516411470713, 4,11,30,32.3024305651932,26,21,60
259,41.011882687413,22.6848824359556,17,15,60,63.3926776673158,28,15,30
260,0.0,0.0, 1, 1,15,0.0, 1, 1,15
291,0.0,0.0, 1, 1,15,0.0, 1, 1,15
322,0.0,0.0, 1, 1,15,0.0, 1, 1,15
323,0.0,0.0, 1, 1,15,0.0, 1, 1,15
324,0.0,0.0, 1, 1,15,0.0, 1, 1,15
325,0.0,0.0, 1, 1,15,0.0, 1, 1,15
408,103312071.487463,0.0, 1, 1,15,166632.373366876, 1, 6,15
461,62089590.5409481,0.0, 1, 1,15,100144.500872497, 1, 6,15
4,181, 6
8,49769377.9290714,7056.14998994401, 1, 8,15,23520.49996648, 1, 1,15
9,29910931.5359026,4240.68027446635, 1, 8,15,14135.6009148878, 1, 1,15
71,33517463.4260516,0.0, 1, 1,15,42054.5337842555, 1,19,15
93,20143682.6319692,0.0, 1, 1,15,25274.3822232988, 1,19,15
125,40516539.4058598,6007.79054060793, 1, 1,15,30038.9527030396, 1,18,15
137,24350061.9591324,3610.62603189983, 1, 1,15,18053.1301594991, 1,18,15
138,298214227.955039,0.0, 1, 1,15,444436.458793637,23,18,30
139,0.0,0.0, 1, 1,15,0.0, 1, 1,15
140,31.1445350401023,25.844981342985, 1, 7,15,36.9204804107435,10,19,45
141,31.2512029072562,27.1265903446491, 1,11,30,35.0820244366476,11,22,60
142,30.9620621671814,25.4392331115884, 1, 5,60,37.2288713669834,10,19,30
143,31.0532986036419,25.6793929577352, 1, 6,15,37.0733273512051,10,19,30
144,31.1906407714888,26.9440551439569, 1, 9,45,35.1920184769797,11,22,60
145,31.2209218393726,27.0446161493574, 1,11,30,35.1370214568136,11,22,60
146,98073455.3809745,0.0, 1,15,60,56239.0292986755, 1, 4,60
147,4014.9221785339,0.0, 1, 1,15,4014.9221785339, 1,15,60
148,0.359224923704631,0.351494878603378,15,15,60,0.366232209950234,12, 3,60
149,60442728.0125071,0.0, 1,15,45,38300.6414583944,12, 7,15
150,5924.78588318472,0.0, 1, 1,15,4398.12710630303, 1,15,60
151,0.359505588009821,0.350621275583477,15,15,60,0.369195898854659,12, 6,60
224,30.9620621671814,25.4392331115884, 1, 5,60,37.2288713669834,10,19,30
225,45.4423602357789,19.4343185723204, 1,15,15,72.3761464701423,14, 5,60
258,31.1906407714888,26.9440551439569, 1, 9,45,35.1920184769797,11,22,60
259,44.549093317056,20.6353488772746, 1,15,15,67.2030365072102,14, 5,60
260,0.0,0.0, 1, 1,15,0.0, 1, 1,15
291,0.0,0.0, 1, 1,15,0.0, 1, 1,15
322,0.0,0.0, 1, 1,15,0.0, 1, 1,15
323,0.0,0.0, 1, 1,15,0.0, 1, 1,15
324,0.0,0.0, 1, 1,15,0.0, 1, 1,15
325,0.0,0.0, 1, 1,15,0.0, 1, 1,15
408,99979424.0201259,0.0, 1, 1,15,166632.373366876, 1, 6,15
461,60086700.5234982,0.0, 1, 1,15,100144.500872497, 1, 6,15
4,212, 7
8,51754508.1262423,7056.14998994401, 1,15,15,23520.49996648, 1, 1,15
9,31103976.2531191,4240.68027446635, 1,15,15,14135.6009148878, 1, 1,15
71,34379581.3686288,0.0, 1, 1,15,42054.5337842555, 1,19,15
93,20661807.4675468,0.0, 1, 1,15,25274.3822232988, 1,19,15
125,41742128.6761437,6007.79054060793, 1, 1,15,30038.9527030396, 1,19,15
137,25086629.66964,3610.62603189983, 1, 1,15,18053.1301594991, 1,19,15
138,239662516.773667,0.0, 1, 1,15,330239.499693826, 9,18,30
139,0.0,0.0, 1, 1,15,0.0, 1, 1,15
140,26.174511657746,24.1673659656704,18, 2,15,31.5971656027193, 1,14,15
141,25.5278176017876,24.485625797731,17,22,15,31.1565403214482, 1, 1,15
142,25.4788403118057,23.9497908535193,17,14,15,31.5789521752955, 1,13,60
143,25.8266759847759,24.1114253336122,17,21,60,31.5346370388222, 1,13,60
144,25.2342400338837,23.9639670680136,18,14,15,30.9107016073329, 1, 1,15
145,25.3810288178356,24.2450870268359,17,21,60,31.0336209643906, 1, 1,15
146,22734431.1878389,0.0, 1,14, 2,35200.9969693701, 1, 1,15
147,22832944.7920561,0.0, 1, 1,15,50646.1470929541,30,14,45
148,0.350095381644141,0.341381619338391,20,15,60,0.358419341107793, 1, 1,60
149,12630112.5918849,0.0, 1,14, 2,24314.8696220699, 1, 3,60
150,13593255.6952013,0.0, 1, 1,15,29509.9257324063,31,15,60
151,0.349808867661701,0.341375867133284,20,15,60,0.360146484443729, 1, 3,60
224,25.4788403118057,23.4098124207588, 1,14, 3,31.5789521752955, 1,13,60
225,73.4693072311254,52.2344829621471,12,13,60,91.4989923263265, 2,14, 3
258,25.2342400338837,23.5969657095565,20,14, 3,30.9107016073329, 1, 1,15
259,74.6244935447103,57.5376953361623, 6,22,30,91.3720292442635, 2,14, 1
260,0.0,0.0, 1, 1,15,0.0, 1, 1,15
291,297877591.404325,0.0, 1, 1,15,891798.623181132, 1,14,45
322,1.841586083628499E-006,0.0, 1, 1,15,6.026539267622866E-008, 6,14,60
323,0.0,0.0, 1, 1,15,0.0, 1, 1,15
324,114886361.918563,0.0, 1, 1,15,536244.625324286, 1,14,45
325,6.056517065644584E-007,0.0, 1, 1,15,2.240767571493052E-008, 1,14,45
408,103312071.487463,0.0, 1, 1,15,166632.373366876, 1, 6,15
461,62089590.5409481,0.0, 1, 1,15,100144.500872497, 1, 6,15
4,243, 8
8,51378180.1267786,7056.14998994401, 1, 8,15,23520.49996648, 1, 1,15
9,30877806.6384809,4240.68027446635, 1, 8,15,14135.6009148878, 1, 1,15
71,34673963.1051186,0.0, 1, 1,15,42054.5337842555, 1,19,15
93,20838728.1431099,0.0, 1, 1,15,25274.3822232988, 1,19,15
125,41886315.6491184,6007.79054060793, 1, 1,15,30038.9527030396, 1,18,15
137,25173284.6944056,3610.62603189983, 1, 1,15,18053.1301594991, 1,18,15
138,239699922.557747,0.0, 1, 1,15,262515.392144715, 6,18,30
139,0.0,0.0, 1, 1,15,0.0, 1, 1,15
140,26.1892202549874,23.0911744311446,26, 7,30,30.1012518408538, 7,14,15
141,25.4455944161768,24.3231815588846,26, 8,30,27.2040896339209, 7,14,15
142,25.4771030449977,22.9195318930986,26, 7,15,30.2927707940064, 7,13,60
143,25.8331616499926,23.0089668970077,26, 7,15,30.1358110174156, 7,13,60
144,25.1584878166347,23.9268378600477,25,14,15,27.5013965054283, 7,13,60
145,25.3020411164058,24.2764917335807,26,21,60,27.3230613375979, 7,13,60
146,23070633.2823287,0.0, 1,14, 1,29997.2944350335,28, 6,60
147,24579098.0801666,0.0, 1, 1,15,51991.1795204198, 7,15,60
148,0.349522519937412,0.338963450001212, 7,15,60,0.356862619234862,25,22,22
149,12656882.2565799,0.0, 1,12,60,19695.6586066039,26, 6,60
150,14800755.1058021,0.0, 1, 1,15,30902.5155310369, 7,15,60
151,0.349151169231857,0.33895649281738, 7,15,60,0.357679034331557,28, 6,60
224,25.4771030449977,22.9195318930986,26, 7,15,30.2927707940064, 7,13,60
225,72.2290027875058,50.6391827831274,30,13,60,93.1972194106844, 2, 5,60
258,25.1584878166347,23.599973961802, 8,14, 3,27.5013965054283, 7,13,60
259,73.7135815006254,55.6692012757357,27,22,30,94.1038484124388, 2, 5,60
260,0.0,0.0, 1, 1,15,0.0, 1, 1,15
291,305661850.677687,0.0, 1, 1,15,712287.965227631, 7,14, 1
322,2.235382794424368E-006,0.0, 1, 1,15,6.558593668160029E-008,15,15,15
323,0.0,0.0, 1, 1,15,0.0, 1, 1,15
324,114348516.190411,0.0, 1, 1,15,274747.212560067, 7,14, 1
325,4.734964420549659E-007,0.0, 1, 1,15,1.128057647292735E-008,17,16,15
408,103312071.487463,0.0, 1, 1,15,166632.373366876, 1, 6,15
461,62089590.5409481,0.0, 1, 1,15,100144.500872497, 1, 6,15
4,273, 9
8,49957541.9288033,7056.14998994401, 1, 8,15,23520.49996648, 1, 1,15
9,30024016.3432217,4240.68027446635, 1, 8,15,14135.6009148878, 1, 1,15
71,33370272.5578067,0.0, 1, 1,15,42054.5337842555, 1,19,15
93,20055222.2941877,0.0, 1, 1,15,25274.3822232988, 1,19,15
125,40444445.9193725,6007.79054060793, 1, 1,15,30038.9527030396, 1,18,15
137,24306734.4467496,3610.62603189983, 1, 1,15,18053.1301594991, 1,18,15
138,181633518.551807,0.0, 1, 1,15,222678.632035708, 7,13,30
139,0.0,0.0, 1, 1,15,0.0, 1, 1,15
140,24.7656699780734,22.3437719467022,30, 7,30,27.9072940306172, 7,14,15
141,24.7105756182841,23.7727642510214,30, 8,60,25.8464737193745, 8,14,15
142,24.3318503733291,22.1123604913727,30, 7,30,28.0265933256993, 7,13,60
143,24.5487601757012,22.2280662190374,30, 7,30,27.9007342191302, 7,13,60
144,24.5471834897285,23.682861592844,30, 7,60,26.0639810328671, 8,13,60
145,24.6288795540063,23.7436389390727,30, 7,60,25.9336162182679, 8,13,60
146,42616370.5120169,0.0, 1,14, 1,46956.4088173314,15,24,60
147,2740196.38341646,0.0, 1, 1,15,27953.7564504844,20,18,60
148,0.353067638576841,0.342421467710388, 6,15,60,0.361062864230239,30,24,60
149,26759135.6803934,0.0, 1,12,45,28798.5922521682,15,24,60
150,1642301.00099297,0.0, 1, 1,15,17248.4653470764,20,18,60
151,0.353327845321153,0.342425183598097, 6,15,60,0.362258176993018,30,24,60
224,24.3318503733291,22.1123604913727,30, 7,30,28.0265933256993, 7,13,60
225,63.5445831988512,35.9947841832275,16,13,60,88.2373122181028, 9, 6,60
258,24.5471834897285,23.6391994518984, 8,14, 3,26.0639810328671, 8,13,60
259,62.7124013886624,37.7525104653354,16,22,30,86.0346946887392, 9, 6,60
260,0.0,0.0, 1, 1,15,0.0, 1, 1,15
291,140571202.278388,0.0, 1, 1,15,429859.979593731, 8,14,45
322,2.447965959463870E-006,0.0, 1, 1,15,2.731894710450433E-008, 6,14,45
323,0.0,0.0, 1, 1,15,0.0, 1, 1,15
324,52088419.2588005,0.0, 1, 1,15,155505.749337107, 8,14,45
325,1.028694363977170E-006,0.0, 1, 1,15,1.019344608721440E-008, 6,16,60
408,99979424.0201259,0.0, 1, 1,15,166632.373366876, 1, 6,15
461,60086700.5234982,0.0, 1, 1,15,100144.500872497, 1, 6,15
4,304,10
8,51566344.1265105,7056.14998994401, 1,15,15,23520.49996648, 1, 1,15
9,30990891.4458,4240.68027446635, 1,15,15,14135.6009148878, 1, 1,15
71,34526772.2368737,0.0, 1, 1,15,42054.5337842555, 1,19,15
93,20750267.8053284,0.0, 1, 1,15,25274.3822232988, 1,19,15
125,41814222.162631,6007.79054060793, 1, 1,15,30038.9527030396, 1,19,15
137,25129957.1820228,3610.62603189983, 1, 1,15,18053.1301594991, 1,19,15
138,150355446.298523,0.0, 1, 1,15,205668.384116989,10,12,30
139,0.0,0.0, 1, 1,15,0.0, 1, 1,15
140,22.0974971654419,18.4302647016053,24, 7,30,26.4058507546323, 7,16,30
141,22.7916279358998,20.1095508231951,25,11,15,26.1521469112827, 7,22,60
142,22.1943100764633,19.9999999999999,24, 3,45,26.4902571812906, 7,19,45
143,22.1459036209526,19.2151323508026,24, 7,30,26.3685986988572, 7,16,15
144,22.8269092903267,20.,31,10,45,26.4877130633067, 7,22,60
145,22.8092686131133,20.0547754115975,25,11,15,26.3199299872947, 7,22,60
146,76747927.557191,0.0,14,18,30,55645.5022132311,24, 3,60
147,50987.6191914875,0.0, 1, 1,15,14549.6964649377,14,18,60
148,0.358287820792996,0.34984675963932,22,15,60,0.369336075238831,24, 6,60
149,50049437.5345857,0.0,14,18,30,34670.2918635987,15,24,60
150,34826.7215555996,0.0, 1, 1,15,9219.4439804023,14,18,60
151,0.35905723478055,0.34875888075469,22,15,60,0.369767063449316,24, 6,60
224,22.1943100764633,19.9999999999999,24, 3,45,26.4902571812906, 7,19,45
225,44.6089073640938,19.7203605277952,19,15,45,70.6692282145333,28,23,30
258,22.8269092903267,20.,31,10,45,26.4877130633067, 7,22,60
259,43.1315882800695,19.740694215055,19,15,30,66.7172011430016,28,24,45
260,30186802.9634632,0.0, 1, 1,15,157582.286774828,24, 6,60
291,0.0,0.0, 1, 1,15,0.0, 1, 1,15
322,30186802.9634641,0.0, 1, 1,15,157582.286774828,24, 6,60
323,221710.942365174,0.0, 1, 1,15,7805.05261744048,31,12,15
324,0.0,0.0, 1, 1,15,0.0, 1, 1,15
325,221710.942365183,0.0, 1, 1,15,7805.05261744074,31,12,15
408,103312071.487463,0.0, 1, 1,15,166632.373366876, 1, 6,15
461,62089590.5409481,0.0, 1, 1,15,100144.500872497, 1, 6,15
4,334,11
8,49769377.9290714,7056.14998994401, 1, 9,15,23520.49996648, 1, 1,15
9,29910931.5359026,4240.68027446635, 1, 9,15,14135.6009148878, 1, 1,15
71,33517463.4260516,0.0, 1, 1,15,42054.5337842555, 1,20,15
93,20143682.6319692,0.0, 1, 1,15,25274.3822232988, 1,20,15
125,40516539.4058598,6007.79054060793, 1, 1,15,30038.9527030396, 1,19,15
137,24350061.9591324,3610.62603189983, 1, 1,15,18053.1301594991, 1,19,15
138,109904977.684068,0.0, 1, 1,15,168567.855963609, 2,12,30
139,0.0,0.0, 1, 1,15,0.0, 1, 1,15
140,19.0398080064294,17.460054377025,27, 7,60,21.5423693754549, 7,16,30
141,20.0269364110504,19.5358992581869,27, 7,60,21.6142975465192, 7,24,30
142,20.0715565232431,19.9999999999998,13, 5,45,21.7413109397863, 7,20,45
143,19.5556822648362,18.7300271885125,27, 7,60,21.5967215328264, 7,16,15
144,20.1711050438253,19.9999999999999,23, 4,60,21.9933837457799, 7,23,60
145,20.0990207274379,19.7679496290934,27, 7,60,21.8015194376728, 7,23,60
146,116698917.16884,2972.67350756412, 7,13,60,81885.3534535628,30,24,60
147,0.0,0.0, 1, 1,15,0.0, 1, 1,15
148,0.365287909139999,0.350738539270183, 6,15,60,0.380876694551695,23, 8,60
149,70646674.4665974,1297.66718701807, 7,13,60,48071.4677507675,23, 7,60
150,0.0,0.0, 1, 1,15,0.0, 1, 1,15
151,0.365410690134458,0.349896270842747, 6,15,60,0.380886048237945,23, 8,60
224,20.0715565232431,19.9999999999998,13, 5,45,21.7413109397863, 7,20,45
225,37.2089427165345,15.9893383075713,23,14,45,62.5045842284542,19,12,60
258,20.1711050438253,19.9999999999999,23, 4,60,21.9933837457799, 7,23,60
259,36.9339209553169,15.425166753884,23,13,30,62.2442513803783,19,12,45
260,293608510.489107,0.0, 1,13,15,301330.592121549,27, 6,60
291,0.0,0.0, 1, 1,15,0.0, 1, 1,15
322,293608510.489115,0.0, 1,13,15,301330.592121563,27, 6,60
323,33533054.1757099,0.0, 1, 1,15,47410.2855482046,23, 6,60
324,0.0,0.0, 1, 1,15,0.0, 1, 1,15
325,33533054.1757111,0.0, 1, 1,15,47410.2855482053,23, 6,60
408,99979424.0201259,0.0, 1, 1,15,166632.373366876, 1, 7,15
461,60086700.5234982,0.0, 1, 1,15,100144.500872497, 1, 7,15
4,365,12
8,51754508.1262423,7056.14998994401, 1, 9,15,23520.49996648, 1, 1,15
9,31103976.2531191,4240.68027446635, 1, 9,15,14135.6009148878, 1, 1,15
71,34379581.3686288,0.0, 1, 1,15,42054.5337842555, 1,20,15
93,20661807.4675468,0.0, 1, 1,15,25274.3822232988, 1,20,15
125,41742128.6761437,6007.79054060793, 1, 1,15,30038.9527030396, 1,19,15
137,25086629.66964,3610.62603189983, 1, 1,15,18053.1301594991, 1,19,15
138,103132167.74353,0.0, 1, 1,15,152450.233391005,19,12,45
139,0.0,0.0, 1, 1,15,0.0, 1, 1,15
140,18.2441378486668,17.1291952043093,31,24,60,19.5378653402218,29,15,45
141,19.6872453704473,19.4167449413559,16, 8,60,20.0000239182861,29,23,60
142,20.,19.9999999999998,20, 9,60,20.0000000000002,31,18,60
143,19.1220689243334,18.5645976021547,31,24,60,19.7689326701109,29,15,45
144,20.0016430439184,19.9999999999999,18, 9,45,20.1751971620922,28,20,60
145,19.8444442071828,19.708372470678,16, 8,60,20.0563122175944,28,22,60
146,196317202.647541,28589.4046731418,11,15,60,111290.122404563,31, 9,60
147,0.0,0.0, 1, 1,15,0.0, 1, 1,15
148,0.376222228134907,0.361452375955918,29,15,60,0.394381660813587,31,24,60
149,117947769.508137,17437.6874131924,11,15,60,66628.0784203239,31, 9,60
150,0.0,0.0, 1, 1,15,0.0, 1, 1,15
151,0.37622460728505,0.361453577720877,29,15,60,0.3943800822702,31,24,60
224,20.,19.9999999999998,20, 9,60,20.0000000000002,31,18,60
225,20.3050837686214,7.93338146728349,16,19,60,40.1860783633817,25, 4,30
258,20.0016430439184,19.9999999999999,18, 9,45,20.1751971620922,28,20,60
259,20.2790711984409,7.44479686327191,16,19,60,40.8133873509037,25, 4,15
260,596196778.600703,48850.1061047161,29,15,60,380432.234110584,18, 6,60
291,0.0,0.0, 1, 1,15,0.0, 1, 1,15
322,596196778.600716,48850.106104718,29,15,60,380432.234110596,18, 6,60
323,98721679.8307318,0.0,11,19,30,72212.1339150016,17, 7,15
324,0.0,0.0, 1, 1,15,0.0, 1, 1,15
325,98721679.8307346,0.0,11,19,30,72212.1339150016,17, 7,15
408,103312071.487463,0.0, 1, 1,15,166632.373366876, 1, 7,15
461,62089590.5409481,0.0, 1, 1,15,100144.500872497, 1, 7,15
End of Data
 Number of Records Written=         384
