Program Version,EnergyPlus, Version 8.4.0-09f5359d8a, YMD=2023.08.02 14:39
1,5,Environment Title[],Latitude[deg],Longitude[deg],Time Zone[],Elevation[m]
2,6,Day of Simulation[],Month[],Day of Month[],DST Indicator[1=yes 0=no],Hour[],StartMinute[],EndMinute[],DayType
3,3,Cumulative Day of Simulation[],Month[],Day of Month[],DST Indicator[1=yes 0=no],DayType  ! When Daily Report Variables Requested
4,2,Cumulative Days of Simulation[],Month[]  ! When Monthly Report Variables Requested
5,1,Cumulative Days of Simulation[] ! When Run Period Report Variables Requested
8,9,PERIM,Zone People Total Heating Energy [J] !Monthly  [Value,Min,Day,Hour,Minute,Max,Day,Hour,Minute]
9,9,CORE,Zone People Total Heating Energy [J] !Monthly  [Value,Min,Day,Hour,Minute,Max,Day,Hour,Minute]
71,9,PERIM,Zone Lights Electric Energy [J] !Monthly  [Value,Min,Day,Hour,Minute,Max,Day,Hour,Minute]
93,9,CORE,Zone Lights Electric Energy [J] !Monthly  [Value,Min,Day,Hour,Minute,Max,Day,Hour,Minute]
125,9,PERIM,Zone Electric Equipment Electric Energy [J] !Monthly  [Value,Min,Day,Hour,Minute,Max,Day,Hour,Minute]
137,9,CORE,Zone Electric Equipment Electric Energy [J] !Monthly  [Value,Min,Day,Hour,Minute,Max,Day,Hour,Minute]
138,9,PERIM,Zone Windows Total Transmitted Solar Radiation Energy [J] !Monthly  [Value,Min,Day,Hour,Minute,Max,Day,Hour,Minute]
139,9,CORE,Zone Windows Total Transmitted Solar Radiation Energy [J] !Monthly  [Value,Min,Day,Hour,Minute,Max,Day,Hour,Minute]
140,9,PERIM,Zone Mean Radiant Temperature [C] !Monthly [Value,Min,Day,Hour,Minute,Max,Day,Hour,Minute]
141,9,CORE,Zone Mean Radiant Temperature [C] !Monthly [Value,Min,Day,Hour,Minute,Max,Day,Hour,Minute]
142,9,PERIM,Zone Mean Air Temperature [C] !Monthly [Value,Min,Day,Hour,Minute,Max,Day,Hour,Minute]
143,9,PERIM,Zone Operative Temperature [C] !Monthly [Value,Min,Day,Hour,Minute,Max,Day,Hour,Minute]
144,9,CORE,Zone Mean Air Temperature [C] !Monthly [Value,Min,Day,Hour,Minute,Max,Day,Hour,Minute]
145,9,CORE,Zone Operative Temperature [C] !Monthly [Value,Min,Day,Hour,Minute,Max,Day,Hour,Minute]
146,9,PERIM,Zone Infiltration Total Heat Loss Energy [J] !Monthly  [Value,Min,Day,Hour,Minute,Max,Day,Hour,Minute]
147,9,PERIM,Zone Infiltration Total Heat Gain Energy [J] !Monthly  [Value,Min,Day,Hour,Minute,Max,Day,Hour,Minute]
148,9,PERIM,Zone Infiltration Air Change Rate [ach] !Monthly [Value,Min,Day,Hour,Minute,Max,Day,Hour,Minute]
149,9,CORE,Zone Infiltration Total Heat Loss Energy [J] !Monthly  [Value,Min,Day,Hour,Minute,Max,Day,Hour,Minute]
150,9,CORE,Zone Infiltration Total Heat Gain Energy [J] !Monthly  [Value,Min,Day,Hour,Minute,Max,Day,Hour,Minute]
151,9,CORE,Zone Infiltration Air Change Rate [ach] !Monthly [Value,Min,Day,Hour,Minute,Max,Day,Hour,Minute]
224,9,PERIM,Zone Air Temperature [C] !Monthly [Value,Min,Day,Hour,Minute,Max,Day,Hour,Minute]
225,9,PERIM,Zone Air Relative Humidity [%] !Monthly [Value,Min,Day,Hour,Minute,Max,Day,Hour,Minute]
258,9,CORE,Zone Air Temperature [C] !Monthly [Value,Min,Day,Hour,Minute,Max,Day,Hour,Minute]
259,9,CORE,Zone Air Relative Humidity [%] !Monthly [Value,Min,Day,Hour,Minute,Max,Day,Hour,Minute]
260,9,PERIM IDEAL LOADS AIR,Zone Ideal Loads Supply Air Total Heating Energy [J] !Monthly  [Value,Min,Day,Hour,Minute,Max,Day,Hour,Minute]
291,9,PERIM IDEAL LOADS AIR,Zone Ideal Loads Supply Air Total Cooling Energy [J] !Monthly  [Value,Min,Day,Hour,Minute,Max,Day,Hour,Minute]
322,9,PERIM IDEAL LOADS AIR,Zone Ideal Loads Zone Total Heating Energy [J] !Monthly  [Value,Min,Day,Hour,Minute,Max,Day,Hour,Minute]
323,9,CORE IDEAL LOADS AIR,Zone Ideal Loads Supply Air Total Heating Energy [J] !Monthly  [Value,Min,Day,Hour,Minute,Max,Day,Hour,Minute]
324,9,CORE IDEAL LOADS AIR,Zone Ideal Loads Supply Air Total Cooling Energy [J] !Monthly  [Value,Min,Day,Hour,Minute,Max,Day,Hour,Minute]
325,9,CORE IDEAL LOADS AIR,Zone Ideal Loads Zone Total Heating Energy [J] !Monthly  [Value,Min,Day,Hour,Minute,Max,Day,Hour,Minute]
408,9,DHW PERIM,Water Use Equipment Heating Energy [J] !Monthly  [Value,Min,Day,Hour,Minute,Max,Day,Hour,Minute]
461,9,DHW CORE,Water Use Equipment Heating Energy [J] !Monthly  [Value,Min,Day,Hour,Minute,Max,Day,Hour,Minute]
End of Data Dictionary
1,ARCHSIM,  37.57, 126.97,   9.00,  87.10
4,31, 1
8,51566344.1111396,7056.14998784062, 1,16,15,23520.4999594687, 1, 1,15
9,30990891.4347584,4240.68027295542, 1,16,15,14135.6009098514, 1, 1,15
71,34526772.2265817,0.0, 1, 1,15,42054.5337717193, 1,20,15
93,20750267.7979351,0.0, 1, 1,15,25274.3822142937, 1,20,15
125,41814222.1501665,6007.79053881705, 1, 1,15,30038.9526940852, 1,20,15
137,25129957.1730691,3610.62603061338, 1, 1,15,18053.1301530669, 1,20,15
138,179177211.771335,0.0, 1, 1,15,398755.651629034,30, 9,60
139,0.0,0.0, 1, 1,15,0.0, 1, 1,15
140,18.398190790304,17.1521796563159,23, 7,60,19.9793539813091, 8,14,30
141,19.7381637355906,19.4259705877561,15, 8,60,20.0913460372847, 8,23,60
142,20.,19.9999999999997,26, 6,30,20.0000000000002,21, 7,45
143,19.199095395152,18.576089828158,23, 7,60,19.9896769906545, 8,14,30
144,20.00227972227,19.9999999999999,17, 5,60,20.2344152883512, 8,20,45
145,19.8702217289303,19.712985293878,15, 8,60,20.1337418195959, 8,21,60
146,211868358.011755,25463.1202940929, 6,15,60,109077.738091472,23, 6,60
147,0.0,0.0, 1, 1,15,0.0, 1, 1,15
148,0.378555463487791,0.36142932106644, 6,15,60,0.393947177782256,23, 6,60
149,127401651.010699,15280.4269842138, 6,15,60,65638.5917402141,23, 6,60
150,0.0,0.0, 1, 1,15,0.0, 1, 1,15
151,0.378557928338499,0.361429787630656, 6,15,60,0.393945454134171,23, 6,60
224,20.,19.9999999999997,26, 6,30,20.0000000000002,21, 7,45
225,17.6112585295328,6.76384898521955,14,19,60,34.9424071172741, 2,22,45
258,20.00227972227,19.9999999999999,17, 5,60,20.2344152883512, 8,20,45
259,17.6384631385264,6.23563003034671,14,19,60,35.3139760324904, 2,22,30
260,582778493.398974,21605.9399056248, 8,14,15,383007.119781833,23, 6,60
291,0.0,0.0, 1, 1,15,0.0, 1, 1,15
322,582778493.398987,21605.9399056256, 8,14,15,383007.119781854,23, 6,60
323,102258501.24567,0.0, 2,19,15,74138.1856637355,23, 6,60
324,0.0,0.0, 1, 1,15,0.0, 1, 1,15
325,102258501.245673,0.0, 2,19,15,74138.1856637391,23, 6,60
408,103312071.456666,0.0, 1, 1,15,166632.373317203, 1, 7,15
461,62089590.518826,0.0, 1, 1,15,100144.500836816, 1, 7,15
4,59, 2
8,46551773.5197808,7056.14998784062, 1, 9,15,23520.4999594687, 1, 1,15
9,27977181.320778,4240.68027295542, 1, 9,15,14135.6009098514, 1, 1,15
71,31204464.0586158,0.0, 1, 1,15,42054.5337717193, 1,20,15
93,18753591.6030059,0.0, 1, 1,15,25274.3822142937, 1,20,15
125,37776986.9080815,6007.79053881705, 1, 1,15,30038.9526940852, 1,19,15
137,22703616.4804969,3610.62603061338, 1, 1,15,18053.1301530669, 1,19,15
138,224284022.32224,0.0, 1, 1,15,493468.277324432,28, 9,30
139,0.0,0.0, 1, 1,15,0.0, 1, 1,15
140,18.9638529054316,17.3857453218979, 8, 6,60,21.6879551797121,28,15,60
141,19.9374011493815,19.5273893684926,11, 8,60,20.8450501566768,28,22,60
142,20.052972436633,19.9999999999998, 3,24,45,21.3607537873719,28,15,60
143,19.5084126710323,18.6928726609489, 8, 6,60,21.524354483542,28,15,60
144,20.0494751344894,19.9999999999999, 8, 6,60,20.9916043854233,28,20,45
145,19.9934381419355,19.7636946842463,11, 8,60,20.9001660086236,28,20,60
146,167412409.162578,15281.3023973183,23,19,45,100154.439289746, 8, 6,60
147,0.0,0.0, 1, 1,15,0.0, 1, 1,15
148,0.374793229851939,0.358876605451167,23,15,60,0.390200607252685, 8, 6,60
149,100793374.139685,9561.53640454676,23,18,60,60182.6070000562, 8, 6,60
150,0.0,0.0, 1, 1,15,0.0, 1, 1,15
151,0.374788087857008,0.358099890897828,23,15,60,0.390200805316581, 8, 6,60
224,20.052972436633,19.9999999999998, 3,24,45,21.3607537873719,28,15,60
225,18.3325548821642,6.30366670255351, 9,17,60,37.9558821410432, 3,22,15
258,20.0494751344894,19.9999999999999, 8, 6,60,20.9916043854233,28,20,45
259,18.4408217990819,6.09705079901107, 9,17,60,38.3701402625551, 3,21,60
260,377762001.791362,0.0,22,13,60,344180.774077977, 8, 6,60
291,0.0,0.0, 1, 1,15,0.0, 1, 1,15
322,377762001.79137,0.0,22,13,60,344180.774077977, 8, 6,60
323,63832335.2069041,0.0, 2,20,60,63685.0816553057, 8, 6,60
324,0.0,0.0, 1, 1,15,0.0, 1, 1,15
325,63832335.2069061,0.0, 2,20,60,63685.0816553104, 8, 6,60
408,93314129.0576339,0.0, 1, 1,15,166632.373317203, 1, 7,15
461,56080920.4686171,0.0, 1, 1,15,100144.500836816, 1, 7,15
4,90, 3
8,51378180.1114638,7056.14998784062, 1, 9,15,23520.4999594687, 1, 1,15
9,30877806.6274796,4240.68027295542, 1, 9,15,14135.6009098514, 1, 1,15
71,34673963.0947827,0.0, 1, 1,15,42054.5337717193, 1,20,15
93,20838728.1356851,0.0, 1, 1,15,25274.3822142937, 1,20,15
125,41886315.6366323,6007.79053881705, 1, 1,15,30038.9526940852, 1,19,15
137,25173284.6854364,3610.62603061338, 1, 1,15,18053.1301530669, 1,19,15
138,355184557.501645,0.0, 1, 1,15,618942.068403562,30, 9,30
139,0.0,0.0, 1, 1,15,0.0, 1, 1,15
140,20.4753774512819,17.7314560996047, 8, 6,60,24.2431556110379,30,16,15
141,20.8286932390586,19.6470479559464, 8, 7,60,22.9308844336342,30,22,60
142,20.7202378985475,19.9999999999998, 9, 3,60,24.0195575654372,30,18,30
143,20.5978076749147,18.8657280498024, 8, 6,60,24.1240498824101,30,16,15
144,20.6774515035087,19.9999999999999, 8, 6,30,23.0689131123221,30,21,60
145,20.7530723712837,19.8235239779732, 8, 7,60,22.9866420076941,30,22,60
146,141824943.294105,8382.15300521981,19,19,60,81894.583060701, 8, 6,60
147,0.0,0.0, 1, 1,15,0.0, 1, 1,15
148,0.368395423908592,0.356357875917316,19,15,60,0.383217270987428, 8, 6,60
149,85325437.9451658,3750.49298479729,19,19,60,49487.187130504, 8, 6,60
150,0.0,0.0, 1, 1,15,0.0, 1, 1,15
151,0.368346561041542,0.354003957323876,19,15,60,0.383211681985608, 8, 6,60
224,20.7202378985475,19.9999999999998, 9, 3,60,24.0195575654372,30,18,30
225,22.8300091810323,8.44990955549387, 7,17,60,40.4837338341048,31,21,45
258,20.6774515035087,19.9999999999999, 8, 6,30,23.0689131123221,30,21,60
259,22.9345520371176,8.43827931530368, 7,17,60,37.3287625329956,31,19,15
260,156553503.699822,0.0, 1,11,60,280695.662049935, 8, 6,60
291,0.0,0.0, 1, 1,15,0.0, 1, 1,15
322,156553503.699826,0.0, 1,11,60,280695.662049942, 8, 6,60
323,15480410.2632807,0.0, 1, 1,15,48315.0202672035, 8, 6,60
324,0.0,0.0, 1, 1,15,0.0, 1, 1,15
325,15480410.2632812,0.0, 1, 1,15,48315.0202672054, 8, 6,60
408,103312071.456666,0.0, 1, 1,15,166632.373317203, 1, 7,15
461,62089590.518826,0.0, 1, 1,15,100144.500836816, 1, 7,15
4,120, 4
8,50145705.9135877,7056.14998784062, 1,15,15,23520.4999594687, 1, 1,15
9,30137101.1398033,4240.68027295542, 1,15,15,14135.6009098514, 1, 1,15
71,33223081.6796584,0.0, 1, 1,15,42054.5337717193, 1,19,15
93,19966761.949292,0.0, 1, 1,15,25274.3822142937, 1,19,15
125,40372352.4208505,6007.79053881705, 1, 1,15,30038.9526940852, 1,19,15
137,24263406.9257219,3610.62603061338, 1, 1,15,18053.1301530669, 1,19,15
138,393357306.658806,0.0, 1, 1,15,791996.972834121,29, 7,30
139,0.0,0.0, 1, 1,15,0.0, 1, 1,15
140,24.2188003624609,18.2932413225639, 1, 7,15,31.5284300762822,11,16,15
141,24.2674039907636,20.3242086911931, 2, 8,15,30.0085508668882,12,22,30
142,24.0283981136601,19.9999999999999, 2, 5,45,31.3247333526114,11,16,15
143,24.1235992380605,19.1466206612819, 1, 7,15,31.4265817144468,11,16,15
144,24.1104915714071,20., 2, 7,60,30.1142439535881,12,19,60
145,24.1889477810854,20.1629020986597, 2, 7,60,30.024293757824,12,21,30
146,115652534.397205,0.0,19,19,60,69583.1871840399,11,22,60
147,1336.02042347133,0.0, 1, 1,15,1336.02042347133,19,19,60
148,0.36418132866684,0.355247007333417,19,12,60,0.372687230266682, 1, 9,60
149,70397335.8985226,0.0,19,19,45,42389.2120558979,13, 2,60
150,6503.69559101456,0.0, 1, 1,15,4390.19046285589,19,19,60
151,0.364297667336061,0.351580281499947,19,12,60,0.37314454746723, 1, 2,60
224,24.0283981136601,19.9999999999999, 2, 5,45,31.3247333526114,11,16,15
225,32.2348569527073,14.3300763278917,18,16,60,60.5290404259493,20,23,45
258,24.1104915714071,20., 2, 7,60,30.1142439535881,12,19,60
259,31.7296137910124,15.8838980669208,18,17,30,53.1030263574548,25, 1,60
260,24091975.2066445,0.0, 1, 8,45,197410.298194387, 1, 7,15
291,0.0,0.0, 1, 1,15,0.0, 1, 1,15
322,24091975.2066452,0.0, 1, 8,45,197410.298194392, 1, 7,15
323,33438.4441217651,0.0, 1, 1,15,6826.58678073257, 2, 7,60
324,0.0,0.0, 1, 1,15,0.0, 1, 1,15
325,33438.4441217658,0.0, 1, 1,15,6826.58678073283, 2, 7,60
408,99979423.9903221,0.0, 1, 1,15,166632.373317203, 1, 6,15
461,60086700.5020897,0.0, 1, 1,15,100144.500836816, 1, 6,15
4,151, 5
8,51378180.1114638,7056.14998784062, 1, 8,15,23520.4999594687, 1, 1,15
9,30877806.6274796,4240.68027295542, 1, 8,15,14135.6009098514, 1, 1,15
71,34673963.0947827,0.0, 1, 1,15,42054.5337717193, 1,19,15
93,20838728.1356851,0.0, 1, 1,15,25274.3822142937, 1,19,15
125,41886315.6366324,6007.79053881705, 1, 1,15,30038.9526940852, 1,18,15
137,25173284.6854364,3610.62603061338, 1, 1,15,18053.1301530669, 1,18,15
138,461069390.127581,0.0, 1, 1,15,1049268.03079122,31, 7,30
139,0.0,0.0, 1, 1,15,0.0, 1, 1,15
140,29.5284614752498,22.3674822750742,11, 6,30,37.4805109675393,26,15,45
141,29.4587499777269,24.8685343383044,30, 6,60,35.1314225561529,26,22,60
142,29.2168341600078,22.1710385951224,11, 6,30,37.1466199886698,26,15,60
143,29.3726478176289,22.2692604350983,11, 6,30,37.3134864009313,26,15,45
144,29.2910261088515,24.7177899221754,30, 5,60,35.1621129265691,26,21,60
145,29.3748880432892,24.836565586921,30, 5,60,35.1306586482877,26,21,60
146,125258740.205575,116.896979695257,11,18,60,75537.2010116867, 8, 1,60
147,0.0,0.0, 1, 1,15,0.0, 1, 1,15
148,0.363488322001945,0.353887120483396,25,15,60,0.373503531489598, 6, 8,37
149,76467058.3726221,0.0,11,18,60,49147.0776742989,17, 5,60
150,15138.0592069722,0.0, 1, 1,15,3144.31031067315,11,18,60
151,0.363595172006096,0.35102856861033,25,15,60,0.37403941620484, 6, 6,50
224,29.2168341600078,22.1710385951224,11, 6,30,37.1466199886698,26,15,60
225,36.5145755023132,15.5618242035548, 8,16,60,64.9863465814585,29, 4,30
258,29.2910261088515,24.7177899221754,30, 5,60,35.1621129265691,26,21,60
259,35.7796728802273,17.4537217959255, 8,16,60,59.1316374181868,28,15,30
260,0.0,0.0, 1, 1,15,0.0, 1, 1,15
291,0.0,0.0, 1, 1,15,0.0, 1, 1,15
322,0.0,0.0, 1, 1,15,0.0, 1, 1,15
323,0.0,0.0, 1, 1,15,0.0, 1, 1,15
324,0.0,0.0, 1, 1,15,0.0, 1, 1,15
325,0.0,0.0, 1, 1,15,0.0, 1, 1,15
408,103312071.456666,0.0, 1, 1,15,166632.373317203, 1, 6,15
461,62089590.518826,0.0, 1, 1,15,100144.500836816, 1, 6,15
4,181, 6
8,49769377.9142362,7056.14998784062, 1, 8,15,23520.4999594687, 1, 1,15
9,29910931.5252457,4240.68027295542, 1, 8,15,14135.6009098514, 1, 1,15
71,33517463.4160604,0.0, 1, 1,15,42054.5337717193, 1,19,15
93,20143682.6247921,0.0, 1, 1,15,25274.3822142937, 1,19,15
125,40516539.393782,6007.79053881705, 1, 1,15,30038.9526940852, 1,18,15
137,24350061.9504566,3610.62603061338, 1, 1,15,18053.1301530669, 1,18,15
138,494099452.273965,0.0, 1, 1,15,1229825.55727326, 8, 7,30
139,0.0,0.0, 1, 1,15,0.0, 1, 1,15
140,35.2810985303728,28.0153188793798, 1, 6,15,43.3633000946038,11,11,60
141,34.9823590115012,30.0184383818757,15, 6,60,40.8913402033499,11,21,45
142,34.9370251335475,27.4995119188754, 1, 5,60,42.9186417580459,11,11,45
143,35.1090618319601,27.7758539536376, 1, 6,15,43.1403630178878,11,11,60
144,34.7758898192796,29.6891995396155, 1, 5,60,40.9277706098166,11,19,45
145,34.8791244153904,29.9091398219401, 1, 6,60,40.8903683573236,11,20,60
146,134643905.236567,10707.2278208036,18, 7, 3,74508.637479988,11, 9,30
147,0.0,0.0, 1, 1,15,0.0, 1, 1,15
148,0.363804136963957,0.355590207719197,14,15,60,0.373501500226797, 1, 8,22
149,81059266.3438196,4045.11943338775, 1,15,60,47226.3040355854,12, 6,60
150,0.0,0.0, 1, 1,15,0.0, 1, 1,15
151,0.363626953101231,0.353453243834187,15,15,60,0.37488613370902,12, 6,30
224,34.9370251335475,27.4995119188754, 1, 5,60,42.9186417580459,11,11,45
225,38.4471303676884,14.1035771711198, 1,15,15,68.2762430736311,14, 5,60
258,34.7758898192796,29.6891995396155, 1, 5,60,40.9277706098166,11,19,45
259,38.2001276733606,16.5341419214933, 1,15,15,61.7912685616479,14, 5,60
260,0.0,0.0, 1, 1,15,0.0, 1, 1,15
291,0.0,0.0, 1, 1,15,0.0, 1, 1,15
322,0.0,0.0, 1, 1,15,0.0, 1, 1,15
323,0.0,0.0, 1, 1,15,0.0, 1, 1,15
324,0.0,0.0, 1, 1,15,0.0, 1, 1,15
325,0.0,0.0, 1, 1,15,0.0, 1, 1,15
408,99979423.9903221,0.0, 1, 1,15,166632.373317203, 1, 6,15
461,60086700.5020897,0.0, 1, 1,15,100144.500836816, 1, 6,15
4,212, 7
8,51754508.1108153,7056.14998784062, 1,15,15,23520.4999594687, 1, 1,15
9,31103976.2420372,4240.68027295542, 1,15,15,14135.6009098514, 1, 1,15
71,34379581.3583807,0.0, 1, 1,15,42054.5337717193, 1,19,15
93,20661807.4601851,0.0, 1, 1,15,25274.3822142937, 1,19,15
125,41742128.6637007,6007.79053881705, 1, 1,15,30038.9526940852, 1,19,15
137,25086629.6607018,3610.62603061338, 1, 1,15,18053.1301530669, 1,19,15
138,372660033.803963,0.0, 1, 1,15,1001491.79844709,12, 7,60
139,0.0,0.0, 1, 1,15,0.0, 1, 1,15
140,27.123861746712,24.0817455313831,12, 4,30,36.350936505627, 1,14,15
141,25.8848628855122,24.5359947592571,17,22,15,33.4964723383374, 1,14,15
142,26.2035932849735,23.9561380084674,17,14,15,36.1433666319065, 1,13,60
143,26.6637275158428,24.0601598435075,12, 4,30,36.2254668290457, 1,13,60
144,25.4427081541596,23.9693833763269, 3,14,15,33.5243412553969, 1,13,60
145,25.6637855198359,24.2712677463865,17,21,60,33.4864555293837, 1,13,60
146,28887030.3591928,0.0, 1,14, 2,46210.6510780197, 1, 9,30
147,23225173.3847511,0.0, 1, 1,15,51787.0672410663,30,14,30
148,0.350866750687977,0.341304755797798,20,15,60,0.362891315383255, 1, 9, 7
149,13536463.4440719,0.0, 1,14, 2,28982.3180551718, 1, 3,60
150,13865154.0616022,0.0, 1, 1,15,30158.2558383325,31,15,60
151,0.349978832264659,0.341293762592364,20,15,60,0.362400473045178, 1, 3,60
224,26.2035932849735,23.5141703518241,30,14, 3,36.1433666319065, 1,13,60
225,70.9332068191959,39.9883898627134,12,12,15,90.9058504042908, 3, 5,60
258,25.4427081541596,23.5771730463818,19,14, 3,33.5243412553969, 1,13,60
259,73.7625653632113,50.8900132721726, 1,13,60,90.5287015905261, 2,14, 1
260,0.0,0.0, 1, 1,15,0.0, 1, 1,15
291,377774555.112486,0.0, 1, 1,15,1563000.5156204, 1,14,45
322,4.302397371702682E-006,0.0, 1, 1,15,9.443965609534644E-008,29,15,45
323,0.0,0.0, 1, 1,15,0.0, 1, 1,15
324,149462198.526631,0.0, 1, 1,15,843156.529626269, 1,14,45
325,1.145861006079940E-006,0.0, 1, 1,15,4.118305696465541E-008,21,15,15
408,103312071.456666,0.0, 1, 1,15,166632.373317203, 1, 6,15
461,62089590.518826,0.0, 1, 1,15,100144.500836816, 1, 6,15
4,243, 8
8,51378180.1114638,7056.14998784062, 1, 8,15,23520.4999594687, 1, 1,15
9,30877806.6274796,4240.68027295542, 1, 8,15,14135.6009098514, 1, 1,15
71,34673963.0947827,0.0, 1, 1,15,42054.5337717193, 1,19,15
93,20838728.1356851,0.0, 1, 1,15,25274.3822142937, 1,19,15
125,41886315.6366324,6007.79053881705, 1, 1,15,30038.9526940852, 1,18,15
137,25173284.6854364,3610.62603061338, 1, 1,15,18053.1301530669, 1,18,15
138,387984213.012759,0.0, 1, 1,15,841233.458969377, 7, 7,45
139,0.0,0.0, 1, 1,15,0.0, 1, 1,15
140,27.1636199447166,23.2161332823052,26, 6,60,34.8148539751743, 7,14,15
141,25.7838150979334,24.4471467007572,26, 7,30,28.9862497422026, 7,14,15
142,26.1811411939731,23.0228029561891,26, 6,60,34.7566985630451, 7,13,60
143,26.6723805693448,23.1194681192471,26, 6,60,34.76348852826, 7,13,60
144,25.3441149208024,23.9335237730386,25,14,15,29.1947459872112, 7,13,60
145,25.5639650093679,24.3571456717753,25,21,60,29.0410318061386, 7,13,60
146,28944317.2011865,0.0, 1,14, 1,39749.6900826546,27,11,60
147,24960763.2337599,0.0, 1, 1,15,53026.6083146241, 7,15,60
148,0.350270489589209,0.338887653468553, 7,15,60,0.358241711979781,28, 7,35
149,13245786.9112161,0.0, 1,13,15,19719.9936505316,26, 6,60
150,14993037.1423797,0.0, 1, 1,15,31314.1509135826, 7,15,60
151,0.349296979822556,0.33887642926323, 7,15,60,0.357950933602608,28, 7, 7
224,26.1811411939731,23.0228029561891,26, 6,60,34.7566985630451, 7,13,60
225,69.6792530280411,43.8422001876839,30,13,60,93.0714893321417, 2, 5,60
258,25.3441149208024,23.5551474271237,28,14, 3,29.1947459872112, 7,13,60
259,72.867288510564,53.7090995341531,30,13,60,93.927456370976, 2, 5,60
260,0.0,0.0, 1, 1,15,0.0, 1, 1,15
291,396336550.24032,0.0, 1, 1,15,1328743.92976984, 7,14,45
322,4.907447528811982E-006,0.0, 1, 1,15,9.658833732828498E-008,28,14,45
323,0.0,0.0, 1, 1,15,0.0, 1, 1,15
324,147846422.979041,0.0, 1, 1,15,403902.645317222, 7,14,45
325,1.045041816812468E-006,0.0, 1, 1,15,4.609432835422922E-008, 4,14,45
408,103312071.456666,0.0, 1, 1,15,166632.373317203, 1, 6,15
461,62089590.518826,0.0, 1, 1,15,100144.500836816, 1, 6,15
4,273, 9
8,49957541.9139119,7056.14998784062, 1, 8,15,23520.4999594687, 1, 1,15
9,30024016.3325245,4240.68027295542, 1, 8,15,14135.6009098514, 1, 1,15
71,33370272.5478594,0.0, 1, 1,15,42054.5337717193, 1,19,15
93,20055222.287042,0.0, 1, 1,15,25274.3822142937, 1,19,15
125,40444445.9073162,6007.79053881705, 1, 1,15,30038.9526940852, 1,18,15
137,24306734.4380893,3610.62603061338, 1, 1,15,18053.1301530669, 1,18,15
138,298647266.145111,0.0, 1, 1,15,610246.260120887,16, 9,30
139,0.0,0.0, 1, 1,15,0.0, 1, 1,15
140,25.5756284078435,22.4121594148762,30, 7,30,30.7312516350955, 7,14,15
141,25.0225493682708,23.861342122902,30, 8,15,26.799118092671, 7,14,15
142,24.8960135834144,22.1804936314206,30, 7,30,30.672653237768, 7,13,60
143,25.2358209956289,22.2963265231484,30, 7,30,30.6556905955273, 7,13,60
144,24.7198035958585,23.7478213581477,30, 7,60,26.9921929809506, 7,13,60
145,24.8711764820647,23.8076350154506,30, 7,60,26.8602043742606, 7,13,60
146,47186710.3158309,0.0, 1,14, 1,47925.3147892692,15,24,60
147,2826852.84943713,0.0, 1, 1,15,26780.8966305663,20,18,60
148,0.353649741636052,0.34233196119628, 6,15,60,0.36125229507553,30,24,60
149,27319934.7440078,0.0, 1,14, 1,29240.1607680239,15,24,60
150,1690387.81656541,0.0, 1, 1,15,16950.648320818,20,18,60
151,0.353448804215307,0.34233551334566, 6,15,60,0.362399802904015,30,24,60
224,24.8960135834144,22.1804936314206,30, 7,30,30.672653237768, 7,13,60
225,61.8420249422417,31.4030399838653,16,13,60,87.6299066453079, 9, 6,60
258,24.7198035958585,23.5796397907658, 1,14, 3,26.9921929809506, 7,13,60
259,62.1264820061614,36.5968549537639,16,13,60,85.4144003511684, 9, 6,60
260,0.0,0.0, 1, 1,15,0.0, 1, 1,15
291,214210222.385223,0.0, 1, 1,15,767025.396595815, 7,14,45
322,4.368215479074992E-006,0.0, 1, 1,15,5.913989298278466E-008, 8,14,45
323,0.0,0.0, 1, 1,15,0.0, 1, 1,15
324,76578603.5078164,0.0, 1, 1,15,210463.57125169, 7,14,45
325,1.604350680356475E-006,0.0, 1, 1,15,2.394244802417234E-008, 7,14,60
408,99979423.9903221,0.0, 1, 1,15,166632.373317203, 1, 6,15
461,60086700.5020897,0.0, 1, 1,15,100144.500836816, 1, 6,15
4,304,10
8,51566344.1111396,7056.14998784062, 1,15,15,23520.4999594687, 1, 1,15
9,30990891.4347584,4240.68027295542, 1,15,15,14135.6009098514, 1, 1,15
71,34526772.2265817,0.0, 1, 1,15,42054.5337717193, 1,19,15
93,20750267.7979351,0.0, 1, 1,15,25274.3822142937, 1,19,15
125,41814222.1501665,6007.79053881705, 1, 1,15,30038.9526940852, 1,19,15
137,25129957.1730691,3610.62603061338, 1, 1,15,18053.1301530669, 1,19,15
138,250420492.108889,0.0, 1, 1,15,520018.67769947, 1, 9,30
139,0.0,0.0, 1, 1,15,0.0, 1, 1,15
140,23.9176848583413,18.7024764797048,24, 7,30,29.6062741520024, 5,15,45
141,24.3924051199551,20.8754559355659,31, 8,60,28.6637123726099, 5,22,60
142,23.8166325156114,19.9999999999999,24, 5,60,29.4502173541864, 5,15,60
143,23.8671586869764,19.3512382398524,24, 7,30,29.5278031077894, 5,15,60
144,24.3506217313957,20.5244179052131,31,10,30,28.8703152840234, 5,21,60
145,24.3715134256754,20.7065017995226,31,10,30,28.7518152017956, 5,21,60
146,92249565.2509617,0.0,14,18,45,59461.6017906207,15,24,60
147,14493.0930828166,0.0, 1, 1,15,7940.31580703104,14,18,60
148,0.360138973293899,0.352059437612205,22,15,60,0.36923698484174,24, 6,60
149,59009728.0508736,0.0,14,18,45,38691.6831090615,15,24,60
150,10957.2548298513,0.0, 1, 1,15,5397.82320366834,14,18,60
151,0.360793646843683,0.350620712832952,22,15,60,0.370672359592906,24, 6,60
224,23.8166325156114,19.9999999999999,24, 5,60,29.4502173541864, 5,15,60
225,41.3192217741107,17.7771334086397,19,15,30,70.2073374240447,28,24,30
258,24.3506217313957,20.5244179052131,31,10,30,28.8703152840234, 5,21,60
259,40.1499491517752,18.4957006286537,19,15,30,64.8836437874388,28,24,30
260,10993966.732973,0.0, 1, 1,15,132686.172822428,24, 7,30
291,0.0,0.0, 1, 1,15,0.0, 1, 1,15
322,10993966.7329733,0.0, 1, 1,15,132686.172822429,24, 7,30
323,0.0,0.0, 1, 1,15,0.0, 1, 1,15
324,0.0,0.0, 1, 1,15,0.0, 1, 1,15
325,0.0,0.0, 1, 1,15,0.0, 1, 1,15
408,103312071.456666,0.0, 1, 1,15,166632.373317203, 1, 6,15
461,62089590.518826,0.0, 1, 1,15,100144.500836816, 1, 6,15
4,334,11
8,49769377.9142361,7056.14998784062, 1, 9,15,23520.4999594687, 1, 1,15
9,29910931.5252457,4240.68027295542, 1, 9,15,14135.6009098514, 1, 1,15
71,33517463.4160604,0.0, 1, 1,15,42054.5337717193, 1,20,15
93,20143682.6247921,0.0, 1, 1,15,25274.3822142937, 1,20,15
125,40516539.393782,6007.79053881705, 1, 1,15,30038.9526940852, 1,19,15
137,24350061.9504566,3610.62603061338, 1, 1,15,18053.1301530669, 1,19,15
138,167836749.913395,0.0, 1, 1,15,368222.340083775, 6, 9,30
139,0.0,0.0, 1, 1,15,0.0, 1, 1,15
140,19.426556970516,17.4843318797236,27, 7,60,22.7801199756533, 7,15,60
141,20.274674868181,19.556707573333,27, 7,60,22.4993336401013, 7,24,15
142,20.2075620243292,19.9999999999998,28, 7,15,22.8123714275168, 7,15,45
143,19.8170594974226,18.7421659398618,27, 7,60,22.7934283788107, 7,15,60
144,20.3467092218694,19.9999999999999,11, 4,60,22.8485086101099, 7,23,60
145,20.3106920450252,19.7783537866665,27, 7,60,22.6732473620049, 7,23,60
146,117245686.136958,6343.69064821803, 7,13,60,81577.1360963146,30,24,60
147,0.0,0.0, 1, 1,15,0.0, 1, 1,15
148,0.365351025976947,0.352024026588629, 6,15,60,0.380767185079646,23, 8,60
149,71266544.2947464,2606.52717398306, 7,13,60,47911.8270495385,23, 7,60
150,0.0,0.0, 1, 1,15,0.0, 1, 1,15
151,0.365523272475663,0.350628639995444, 6,15,60,0.3807759427343,23, 8,60
224,20.2075620243292,19.9999999999998,28, 7,15,22.8123714275168, 7,15,45
225,36.8798253506501,15.7765336194375,23,13,60,61.5501475365609,19,11,30
258,20.3467092218694,19.9999999999999,11, 4,60,22.8485086101099, 7,23,60
259,36.535963635378,15.3993270917079,23,13,15,61.6758761337061,19,12,45
260,243727625.397096,0.0, 1,10,60,297994.824267419,27, 6,60
291,0.0,0.0, 1, 1,15,0.0, 1, 1,15
322,243727625.397102,0.0, 1,10,60,297994.824267428,27, 6,60
323,27041327.2103317,0.0, 1, 1,15,45329.7306462358,23, 6,60
324,0.0,0.0, 1, 1,15,0.0, 1, 1,15
325,27041327.2103326,0.0, 1, 1,15,45329.7306462373,23, 6,60
408,99979423.9903221,0.0, 1, 1,15,166632.373317203, 1, 7,15
461,60086700.5020897,0.0, 1, 1,15,100144.500836816, 1, 7,15
4,365,12
8,51754508.1108153,7056.14998784062, 1, 9,15,23520.4999594687, 1, 1,15
9,31103976.2420372,4240.68027295542, 1, 9,15,14135.6009098514, 1, 1,15
71,34379581.3583807,0.0, 1, 1,15,42054.5337717193, 1,20,15
93,20661807.4601851,0.0, 1, 1,15,25274.3822142937, 1,20,15
125,41742128.6637007,6007.79053881705, 1, 1,15,30038.9526940852, 1,19,15
137,25086629.6607018,3610.62603061338, 1, 1,15,18053.1301530669, 1,19,15
138,156814674.308277,0.0, 1, 1,15,310377.602662121,31, 9,45
139,0.0,0.0, 1, 1,15,0.0, 1, 1,15
140,18.4582330979506,17.1563215520193,18, 6,60,19.7731168151094,28,15,30
141,19.747141778477,19.4300049927032,17, 8,60,20.0799798724009,28,23,60
142,20.,19.9999999999998,20, 2,30,20.0000000000001,18, 7,15
143,19.2291165489753,18.5781607760097,18, 6,60,19.8865584075547,28,15,30
144,20.0036816202688,19.9999999999999,31,16,60,20.2689207093613,28,20,60
145,19.8754116993729,19.7150024963516,17, 8,60,20.148548409404,28,22,60
146,195429970.558941,28505.4446471014,11,15,60,110968.695824576,31, 9,60
147,0.0,0.0, 1, 1,15,0.0, 1, 1,15
148,0.376115195798573,0.361353240290747,29,15,60,0.394264105831123,31,24,60
149,117511899.974396,17327.7553762554,11,15,60,66463.6803064652,31, 9,60
150,0.0,0.0, 1, 1,15,0.0, 1, 1,15
151,0.376119531332942,0.361354343086156,29,15,60,0.394261795859921,31,24,60
224,20.,19.9999999999998,20, 2,30,20.0000000000001,18, 7,15
225,20.2594371689341,7.85291823095019,16,19,60,40.2141614416025,25, 4,30
258,20.0036816202688,19.9999999999999,31,16,60,20.2689207093613,28,20,60
259,20.2749897411518,7.42370714866298,16,19,60,40.8284310582104,25, 4,15
260,539375667.677184,41498.2552923284,29,15,60,377785.886058758,18, 6,60
291,0.0,0.0, 1, 1,15,0.0, 1, 1,15
322,539375667.677196,41498.2552923301,29,15,60,377785.886058766,18, 6,60
323,91136865.2945348,0.0, 7,20,15,71407.8907532127,17, 8,15
324,0.0,0.0, 1, 1,15,0.0, 1, 1,15
325,91136865.2945375,0.0, 7,20,15,71407.8907532127,17, 8,15
408,103312071.456666,0.0, 1, 1,15,166632.373317203, 1, 7,15
461,62089590.518826,0.0, 1, 1,15,100144.500836816, 1, 7,15
End of Data
 Number of Records Written=         384
