Program Version,EnergyPlus, Version 8.4.0-09f5359d8a, YMD=2023.08.02 14:39
1,5,Environment Title[],Latitude[deg],Longitude[deg],Time Zone[],Elevation[m]
2,6,Day of Simulation[],Month[],Day of Month[],DST Indicator[1=yes 0=no],Hour[],StartMinute[],EndMinute[],DayType
3,3,Cumulative Day of Simulation[],Month[],Day of Month[],DST Indicator[1=yes 0=no],DayType  ! When Daily Report Variables Requested
4,2,Cumulative Days of Simulation[],Month[]  ! When Monthly Report Variables Requested
5,1,Cumulative Days of Simulation[] ! When Run Period Report Variables Requested
8,9,PERIM,Zone People Total Heating Energy [J] !Monthly  [Value,Min,Day,Hour,Minute,Max,Day,Hour,Minute]
9,9,CORE,Zone People Total Heating Energy [J] !Monthly  [Value,Min,Day,Hour,Minute,Max,Day,Hour,Minute]
71,9,PERIM,Zone Lights Electric Energy [J] !Monthly  [Value,Min,Day,Hour,Minute,Max,Day,Hour,Minute]
93,9,CORE,Zone Lights Electric Energy [J] !Monthly  [Value,Min,Day,Hour,Minute,Max,Day,Hour,Minute]
125,9,PERIM,Zone Electric Equipment Electric Energy [J] !Monthly  [Value,Min,Day,Hour,Minute,Max,Day,Hour,Minute]
137,9,CORE,Zone Electric Equipment Electric Energy [J] !Monthly  [Value,Min,Day,Hour,Minute,Max,Day,Hour,Minute]
138,9,PERIM,Zone Windows Total Transmitted Solar Radiation Energy [J] !Monthly  [Value,Min,Day,Hour,Minute,Max,Day,Hour,Minute]
139,9,CORE,Zone Windows Total Transmitted Solar Radiation Energy [J] !Monthly  [Value,Min,Day,Hour,Minute,Max,Day,Hour,Minute]
140,9,PERIM,Zone Mean Radiant Temperature [C] !Monthly [Value,Min,Day,Hour,Minute,Max,Day,Hour,Minute]
141,9,CORE,Zone Mean Radiant Temperature [C] !Monthly [Value,Min,Day,Hour,Minute,Max,Day,Hour,Minute]
142,9,PERIM,Zone Mean Air Temperature [C] !Monthly [Value,Min,Day,Hour,Minute,Max,Day,Hour,Minute]
143,9,PERIM,Zone Operative Temperature [C] !Monthly [Value,Min,Day,Hour,Minute,Max,Day,Hour,Minute]
144,9,CORE,Zone Mean Air Temperature [C] !Monthly [Value,Min,Day,Hour,Minute,Max,Day,Hour,Minute]
145,9,CORE,Zone Operative Temperature [C] !Monthly [Value,Min,Day,Hour,Minute,Max,Day,Hour,Minute]
146,9,PERIM,Zone Infiltration Total Heat Loss Energy [J] !Monthly  [Value,Min,Day,Hour,Minute,Max,Day,Hour,Minute]
147,9,PERIM,Zone Infiltration Total Heat Gain Energy [J] !Monthly  [Value,Min,Day,Hour,Minute,Max,Day,Hour,Minute]
148,9,PERIM,Zone Infiltration Air Change Rate [ach] !Monthly [Value,Min,Day,Hour,Minute,Max,Day,Hour,Minute]
149,9,CORE,Zone Infiltration Total Heat Loss Energy [J] !Monthly  [Value,Min,Day,Hour,Minute,Max,Day,Hour,Minute]
150,9,CORE,Zone Infiltration Total Heat Gain Energy [J] !Monthly  [Value,Min,Day,Hour,Minute,Max,Day,Hour,Minute]
151,9,CORE,Zone Infiltration Air Change Rate [ach] !Monthly [Value,Min,Day,Hour,Minute,Max,Day,Hour,Minute]
224,9,PERIM,Zone Air Temperature [C] !Monthly [Value,Min,Day,Hour,Minute,Max,Day,Hour,Minute]
225,9,PERIM,Zone Air Relative Humidity [%] !Monthly [Value,Min,Day,Hour,Minute,Max,Day,Hour,Minute]
258,9,CORE,Zone Air Temperature [C] !Monthly [Value,Min,Day,Hour,Minute,Max,Day,Hour,Minute]
259,9,CORE,Zone Air Relative Humidity [%] !Monthly [Value,Min,Day,Hour,Minute,Max,Day,Hour,Minute]
260,9,PERIM IDEAL LOADS AIR,Zone Ideal Loads Supply Air Total Heating Energy [J] !Monthly  [Value,Min,Day,Hour,Minute,Max,Day,Hour,Minute]
291,9,PERIM IDEAL LOADS AIR,Zone Ideal Loads Supply Air Total Cooling Energy [J] !Monthly  [Value,Min,Day,Hour,Minute,Max,Day,Hour,Minute]
322,9,PERIM IDEAL LOADS AIR,Zone Ideal Loads Zone Total Heating Energy [J] !Monthly  [Value,Min,Day,Hour,Minute,Max,Day,Hour,Minute]
323,9,CORE IDEAL LOADS AIR,Zone Ideal Loads Supply Air Total Heating Energy [J] !Monthly  [Value,Min,Day,Hour,Minute,Max,Day,Hour,Minute]
324,9,CORE IDEAL LOADS AIR,Zone Ideal Loads Supply Air Total Cooling Energy [J] !Monthly  [Value,Min,Day,Hour,Minute,Max,Day,Hour,Minute]
325,9,CORE IDEAL LOADS AIR,Zone Ideal Loads Zone Total Heating Energy [J] !Monthly  [Value,Min,Day,Hour,Minute,Max,Day,Hour,Minute]
408,9,DHW PERIM,Water Use Equipment Heating Energy [J] !Monthly  [Value,Min,Day,Hour,Minute,Max,Day,Hour,Minute]
461,9,DHW CORE,Water Use Equipment Heating Energy [J] !Monthly  [Value,Min,Day,Hour,Minute,Max,Day,Hour,Minute]
End of Data Dictionary
1,ARCHSIM,  37.57, 126.97,   9.00,  87.10
4,31, 1
8,51566344.1158321,7056.14998848272, 1,16,15,23520.4999616091, 1, 1,15
9,30990891.4361657,4240.68027314803, 1,16,15,14135.6009104934, 1, 1,15
71,34526772.2297234,0.0, 1, 1,15,42054.5337755462, 1,20,15
93,20750267.7988776,0.0, 1, 1,15,25274.3822154416, 1,20,15
125,41814222.1539715,6007.79053936375, 1, 1,15,30038.9526968187, 1,20,15
137,25129957.1742107,3610.62603077738, 1, 1,15,18053.1301538869, 1,20,15
138,1163889451.88976,0.0, 1, 1,15,2104082.47071094,14,12,30
139,0.0,0.0, 1, 1,15,0.0, 1, 1,15
140,27.4728229066388,17.4024310017436,22, 8,45,42.3577228977666, 4,15,15
141,26.1729438269785,19.9012902762303,22, 9,15,31.7506099942011, 4,22,30
142,26.827140972154,19.9999999999998,22, 3,15,41.9528494947906, 4,14,60
143,27.1499819393964,18.7012155008718,22, 8,45,42.1476509627888, 4,15,15
144,25.4788604157823,20.,22, 9,30,31.2045475743216, 4,20,60
145,25.8259021213804,19.9506451381152,22, 9,15,31.4580582413512, 4,22,15
146,284124987.391813,15639.45886561, 3, 9,33,143829.830134601,14,14,45
147,0.0,0.0, 1, 1, 7,0.0, 1, 1, 7
148,0.387456857968718,0.371827819097372, 6, 7,45,0.406997336438073,14,14,45
149,163445110.43931,9424.12967369775, 3,12,18,75057.0562631026,10,24,60
150,0.0,0.0, 1, 1, 7,0.0, 1, 1, 7
151,0.385748643245927,0.369573771304387, 6,15,60,0.397502161988228,11, 1, 7
224,26.827140972154,19.9999999999998,22, 3,15,41.9528494947906, 4,14,60
225,14.8132562115456,3.48405535868129,16,14,60,33.7527004410748, 2, 7,60
258,25.4788604157823,20.,22, 9,30,31.2045475743216, 4,20,60
259,14.9357718180932,5.2054371053598,14,19,60,29.0812552243952, 2, 7,60
260,51098160.2922206,0.0, 1, 1, 7,344144.943034025,22, 8,45
291,0.0,0.0, 1, 1, 7,0.0, 1, 1, 7
322,51098160.2922217,0.0, 1, 1, 7,344144.943034025,22, 8,45
323,1226606.96916115,0.0, 1, 1, 7,49094.8037872443,22, 8,60
324,0.0,0.0, 1, 1, 7,0.0, 1, 1, 7
325,1226606.96916118,0.0, 1, 1, 7,49094.8037872444,22, 8,60
408,103312071.466067,0.0, 1, 1, 7,166632.373332366, 1, 7,15
461,62089590.5216461,0.0, 1, 1, 7,100144.500841365, 1, 7,15
4,59, 2
8,46551773.5240169,7056.14998848272, 1, 9,15,23520.4999616091, 1, 1,15
9,27977181.3220486,4240.68027314803, 1, 9,15,14135.6009104934, 1, 1,15
71,31204464.0614553,0.0, 1, 1,15,42054.5337755462, 1,20,15
93,18753591.6038577,0.0, 1, 1,15,25274.3822154416, 1,20,15
125,37776986.9115191,6007.79053936375, 1, 1,15,30038.9526968187, 1,19,15
137,22703616.4815283,3610.62603077738, 1, 1,15,18053.1301538869, 1,19,15
138,1075860201.25605,0.0, 1, 1,15,2103451.37204431, 9,12,30
139,0.0,0.0, 1, 1,15,0.0, 1, 1,15
140,29.4982944238529,17.6118370329005, 4, 7,30,46.8037144601331,28,14,60
141,27.9134573728078,19.8811711116091, 4, 8,60,36.6989163210974,28,21,30
142,28.8185027661281,19.9999999999999, 4, 6,45,46.2607932739845,28,14,45
143,29.1583985949905,18.8059185164503, 4, 7,30,46.5193179793523,28,14,60
144,27.2539881356016,19.9999999999999, 4, 7,15,36.0894621772882,28,20,45
145,27.5837227542046,19.9405855558045, 4, 8,60,36.3872324046231,28,20,60
146,250607979.132905,16074.761143591,21, 9,48,147057.409329181, 7,14,45
147,0.0,0.0, 1, 1, 7,0.0, 1, 1, 7
148,0.386039261527714,0.369376388145872, 3,15,60,0.408677116002374, 7,14,60
149,143397957.689245,8596.16229561677,21,12,33,84629.907866667, 8, 1,45
150,0.0,0.0, 1, 1, 7,0.0, 1, 1, 7
151,0.384094993227083,0.370409457038281,23,15,60,0.40336624136862, 7,24,52
224,28.8185027661281,19.9999999999999, 4, 6,45,46.2607932739845,28,14,45
225,14.7789481259154,2.99379648507847, 9,14,60,38.1994029968175, 3,22,15
258,27.2539881356016,19.9999999999999, 4, 7,15,36.089873427538,28,20,37
259,15.0430320711148,4.60295126471807, 9,17,60,36.755084554867, 3,22,30
260,30112974.2916278,0.0, 1, 1, 7,296984.122892247, 4, 7,30
291,0.0,0.0, 1, 1, 7,0.0, 1, 1, 7
322,30112974.2916285,0.0, 1, 1, 7,296984.122892253, 4, 7,30
323,761735.72461256,0.0, 1, 1, 7,35700.7587872838, 4, 8,60
324,0.0,0.0, 1, 1, 7,0.0, 1, 1, 7
325,761735.724612585,0.0, 1, 1, 7,35700.7587872853, 4, 8,60
408,93314129.0661252,0.0, 1, 1, 7,166632.373332366, 1, 7,15
461,56080920.4711642,0.0, 1, 1, 7,100144.500841365, 1, 7,15
4,90, 3
8,51378180.1161392,7056.14998848272, 1, 9,15,23520.4999616091, 1, 1,15
9,30877806.6288818,4240.68027314803, 1, 9,15,14135.6009104934, 1, 1,15
71,34673963.0979378,0.0, 1, 1,15,42054.5337755462, 1,20,15
93,20838728.1366316,0.0, 1, 1,15,25274.3822154416, 1,20,15
125,41886315.6404438,6007.79053936375, 1, 1,15,30038.9526968187, 1,19,15
137,25173284.68658,3610.62603077738, 1, 1,15,18053.1301538869, 1,19,15
138,1094869997.77413,0.0, 1, 1,15,1794969.72795944, 6,12,15
139,0.0,0.0, 1, 1,15,0.0, 1, 1,15
140,32.3828046484984,21.2837336662234, 9, 7,45,46.9331420487855,19,14,60
141,31.3075444762086,25.6399152463923,28, 9,45,37.4787876990122,19,22,30
142,31.6036404099179,20.5383398660141, 9, 7,45,46.5719489482275,19,14,45
143,31.9932225292081,20.9110367661188, 9, 7,45,46.7326254562416,19,14,45
144,30.6827414119816,24.9739533204819, 9,10,15,37.0653842256139,19,20,45
145,30.9951429440951,25.3173751594632, 9,10,15,37.2584405938895,19,21,60
146,255273820.571944,19929.1321269258,11,10,48,118843.952295224, 7,14,15
147,0.0,0.0, 1, 1, 7,0.0, 1, 1, 7
148,0.382086720770306,0.371165461472709,31, 7,30,0.398969304435134, 7,14,15
149,150145978.506374,9966.1106597244,11,10,48,68552.821045991, 8, 3,60
150,0.0,0.0, 1, 1, 7,0.0, 1, 1, 7
151,0.38098060998378,0.367831442375529,30,15,60,0.393453669176755, 8, 3,60
224,31.6036404099179,20.5383398660141, 9, 7,45,46.5719489482275,19,14,45
225,16.2070727754593,4.15499441865604, 7,14,30,34.2721003994628,28, 6,60
258,30.6827414119816,24.9567047382909, 9,10,15,37.0653842256139,19,20,45
259,16.4443349213032,6.0409695448772, 7,17,60,28.2148030595066,28, 7,60
260,0.0,0.0, 1, 1, 7,0.0, 1, 1, 7
291,0.0,0.0, 1, 1, 7,0.0, 1, 1, 7
322,0.0,0.0, 1, 1, 7,0.0, 1, 1, 7
323,0.0,0.0, 1, 1, 7,0.0, 1, 1, 7
324,0.0,0.0, 1, 1, 7,0.0, 1, 1, 7
325,0.0,0.0, 1, 1, 7,0.0, 1, 1, 7
408,103312071.466067,0.0, 1, 1, 7,166632.373332366, 1, 7,15
461,62089590.5216461,0.0, 1, 1, 7,100144.500841365, 1, 7,15
4,120, 4
8,50145705.9181509,7056.14998848272, 1,15,15,23520.4999616091, 1, 1,15
9,30137101.1411719,4240.68027314803, 1,15,15,14135.6009104934, 1, 1,15
71,33223081.6826815,0.0, 1, 1,15,42054.5337755462, 1,19,15
93,19966761.9501989,0.0, 1, 1,15,25274.3822154416, 1,19,15
125,40372352.4245242,6007.79053936375, 1, 1,15,30038.9526968187, 1,19,15
137,24263406.9268241,3610.62603077738, 1, 1,15,18053.1301538869, 1,19,15
138,749810946.070336,0.0, 1, 1,15,1496108.76753188, 2,11,45
139,0.0,0.0, 1, 1,15,0.0, 1, 1,15
140,30.9174827231887,19.5378534361234,26, 6,45,47.4317889976135,10,14,30
141,30.3355005745139,22.6082509919738,26,10,30,40.022184691707,10,21,60
142,30.3632950361042,20.,26, 6,45,47.0048620786421,10,14,15
143,30.6403888796465,19.7689267180617,26, 6,45,47.2147960136123,10,14,30
144,29.9498745364181,22.2312470212931,26,11,15,39.7458889980274,10,19,60
145,30.142687555466,22.4208265889851,26,10,30,39.8255990846273,10,21,15
146,179259934.42489,14036.4351076676,27, 9,50,101039.668036187,11,22,60
147,0.0,0.0, 1, 1,15,0.0, 1, 1,15
148,0.372023426446364,0.364045595812228,19,12,60,0.385493773422066, 1,14,15
149,106591325.062567,7027.50077227093,19,19,60,62145.8765928067,11,22,60
150,0.0,0.0, 1, 1,15,0.0, 1, 1,15
151,0.371555857983113,0.35712218355897,19,12,60,0.383342765947544, 1, 3,22
224,30.3632950361042,20.,26, 6,45,47.0048620786421,10,14,15
225,25.6540697351775,7.98389464789038,11,16,60,53.7191885832561,20,23,45
258,29.9498745364181,22.2226815853347,26,11,15,39.7458889980274,10,19,60
259,25.3198105973683,10.1723707740397,11,16,60,45.404354196731,25, 2,30
260,991503.781565155,0.0, 1, 1,15,73658.7646887736,26, 6,45
291,0.0,0.0, 1, 1,15,0.0, 1, 1,15
322,991503.781565187,0.0, 1, 1,15,73658.7646887754,26, 6,45
323,0.0,0.0, 1, 1,15,0.0, 1, 1,15
324,0.0,0.0, 1, 1,15,0.0, 1, 1,15
325,0.0,0.0, 1, 1,15,0.0, 1, 1,15
408,99979423.9994198,0.0, 1, 1,15,166632.373332366, 1, 6,15
461,60086700.5048188,0.0, 1, 1,15,100144.500841365, 1, 6,15
4,151, 5
8,51378180.1161392,7056.14998848272, 1, 8,15,23520.4999616091, 1, 1,15
9,30877806.6288818,4240.68027314803, 1, 8,15,14135.6009104934, 1, 1,15
71,34673963.0979378,0.0, 1, 1,15,42054.5337755462, 1,19,15
93,20838728.1366316,0.0, 1, 1,15,25274.3822154416, 1,19,15
125,41886315.6404439,6007.79053936375, 1, 1,15,30038.9526968187, 1,18,15
137,25173284.68658,3610.62603077738, 1, 1,15,18053.1301538869, 1,18,15
138,548285650.767227,0.0, 1, 1,15,937592.781580918, 5,11,30
139,0.0,0.0, 1, 1,15,0.0, 1, 1,15
140,31.1161721357225,22.9487096235653,30, 6,45,39.4045458547523,26,15,60
141,31.0019502294473,25.3584394860635,30, 9,15,36.4583418783028,26,22,60
142,30.7110198427219,22.7260887249009,30, 6,60,39.006622458705,26,15,60
143,30.9135959892222,22.8390057972895,30, 6,60,39.2055841567286,26,15,60
144,30.76863016492,25.2443121631421,30, 9,45,36.4154683852381,26,21,60
145,30.8852901971837,25.3027297137268,30, 9,30,36.4215598758088,26,21,60
146,141987570.852658,5428.90828330116,21,19,60,82735.2715733248, 8, 1,60
147,0.0,0.0, 1, 1,15,0.0, 1, 1,15
148,0.365421407716315,0.357044560115633,23,15,60,0.373761723410153, 2,15,22
149,86650430.8423435,0.0,21,19,60,53744.9257794899,17, 5,60
150,671.967342366886,0.0, 1, 1,15,671.967342366886,21,19,60
151,0.365517685736989,0.352351299647656,23,15,60,0.377215522212689, 1, 3,60
224,30.7110198427219,22.7260887249009,30, 6,60,39.006622458705,26,15,60
225,34.484614543749,13.2997589144593, 8,15,45,63.3530792096459,29, 4,30
258,30.76863016492,25.2377304424193,30, 9,30,36.4154683852381,26,21,60
259,33.6805511235859,16.2357256987002, 8,16,60,57.0331089981833,28,15,30
260,0.0,0.0, 1, 1,15,0.0, 1, 1,15
291,0.0,0.0, 1, 1,15,0.0, 1, 1,15
322,0.0,0.0, 1, 1,15,0.0, 1, 1,15
323,0.0,0.0, 1, 1,15,0.0, 1, 1,15
324,0.0,0.0, 1, 1,15,0.0, 1, 1,15
325,0.0,0.0, 1, 1,15,0.0, 1, 1,15
408,103312071.466067,0.0, 1, 1,15,166632.373332366, 1, 6,15
461,62089590.5216461,0.0, 1, 1,15,100144.500841365, 1, 6,15
4,181, 6
8,49769377.9187651,7056.14998848272, 1, 8,15,23520.4999616091, 1, 1,15
9,29910931.5266041,4240.68027314803, 1, 8,15,14135.6009104934, 1, 1,15
71,33517463.4191103,0.0, 1, 1,15,42054.5337755462, 1,19,15
93,20143682.625707,0.0, 1, 1,15,25274.3822154416, 1,19,15
125,40516539.3974689,6007.79053936375, 1, 1,15,30038.9526968187, 1,18,15
137,24350061.9515628,3610.62603077738, 1, 1,15,18053.1301538869, 1,18,15
138,471343181.374236,0.0, 1, 1,15,777300.504509734, 1,11,30
139,0.0,0.0, 1, 1,15,0.0, 1, 1,15
140,34.5132039904515,27.8395560611151, 1, 6,60,42.0293645905919,10,16,15
141,34.3024490548031,29.7377728945024, 1, 9,45,39.3425079362945,11,22,60
142,34.1619116850048,27.3592846064262, 1, 5,60,41.638239660926,10,16,15
143,34.3375578377281,27.6324398098414, 1, 6,60,41.833802125759,10,16,15
144,34.1152937187411,29.4148133606521, 1, 9,45,39.3643624278541,11,20,60
145,34.2088713867721,29.5762931275773, 1, 9,45,39.3100137199476,11,20,60
146,129157177.513539,11970.1390879333,15,10, 7,65933.0084187589, 8, 3,15
147,0.0,0.0, 1, 1,15,0.0, 1, 1,15
148,0.36303165961611,0.356543330224093,14,15,60,0.370464870102001,12, 3,22
149,78320289.1696709,2271.86832547922, 1,15,60,45371.4642682285,12, 7,15
150,0.0,0.0, 1, 1,15,0.0, 1, 1,15
151,0.362993972960127,0.353542801904298,15,15,60,0.373519189257709,12, 6,45
224,34.1619116850048,27.3592846064262, 1, 5,60,41.638239660926,10,16,15
225,39.5487635657354,14.4190214356216, 1,15,15,67.7935189968237,14, 5,60
258,34.1152937187411,29.4100778986916, 1, 9,30,39.3643624278541,11,20,60
259,39.1423671084982,17.492860013879, 1,15,15,61.4828173030693,14, 5,60
260,0.0,0.0, 1, 1,15,0.0, 1, 1,15
291,0.0,0.0, 1, 1,15,0.0, 1, 1,15
322,0.0,0.0, 1, 1,15,0.0, 1, 1,15
323,0.0,0.0, 1, 1,15,0.0, 1, 1,15
324,0.0,0.0, 1, 1,15,0.0, 1, 1,15
325,0.0,0.0, 1, 1,15,0.0, 1, 1,15
408,99979423.9994198,0.0, 1, 1,15,166632.373332366, 1, 6,15
461,60086700.5048188,0.0, 1, 1,15,100144.500841365, 1, 6,15
4,212, 7
8,51754508.1155249,7056.14998848272, 1,15,15,23520.4999616091, 1, 1,15
9,31103976.2434497,4240.68027314803, 1,15,15,14135.6009104934, 1, 1,15
71,34379581.361509,0.0, 1, 1,15,42054.5337755462, 1,19,15
93,20661807.4611235,0.0, 1, 1,15,25274.3822154416, 1,19,15
125,41742128.6674991,6007.79053936375, 1, 1,15,30038.9526968187, 1,19,15
137,25086629.6618413,3610.62603077738, 1, 1,15,18053.1301538869, 1,19,15
138,416070083.083906,0.0, 1, 1,15,766377.448964703,28,11,30
139,0.0,0.0, 1, 1,15,0.0, 1, 1,15
140,27.0236451328456,24.0174473062779,12, 6,30,36.8528065296106, 1,14,15
141,25.8314617582538,24.5488054269447,17,22,15,33.6385693635965, 1, 1,15
142,25.9770976654107,23.9436418018461, 2,14,15,36.6029029153349, 1,13,60
143,26.5003713991281,24.0676402530284,12, 4,30,36.68406004789, 1,13,60
144,25.3903457263622,23.9625460520269, 3,14,15,33.2901504706427, 1, 1,15
145,25.6109037423079,24.2778703705226,17,21,60,33.4643599171196, 1, 1,15
146,27272120.0581147,0.0, 1,14, 2,42516.5057676457, 1, 1,15
147,23151500.8015961,0.0, 1, 1,15,52804.2165957785,30,14,30
148,0.350746882458501,0.341436596616301,20,15,60,0.360530041114197, 1, 1,60
149,13588122.824102,0.0, 1,14, 2,29700.7691175615, 1, 3,60
150,13729886.0056846,0.0, 1, 1,15,30232.8188998982,30,14,45
151,0.350062007391985,0.341424016914872,20,15,60,0.362810339597933, 1, 3,60
224,25.9770976654107,23.3621655673748, 2,14, 5,36.6029029153349, 1,13,60
225,71.5988641372419,41.5146904796198,12,13,60,91.1842536543269, 2,14, 3
258,25.3903457263622,23.5473078713555,24,14, 3,33.2901504706427, 1, 1,15
259,73.9123892670099,51.7176999032533, 1,13,60,90.6270473096669, 2,14, 3
260,0.0,0.0, 1, 1,15,0.0, 1, 1,15
291,427883738.868701,0.0, 1, 1,15,1639840.31566718, 1,14,45
322,4.855181430230005E-006,0.0, 1, 1,15,1.397665982949548E-007,31,14,45
323,0.0,0.0, 1, 1,15,0.0, 1, 1,15
324,148601036.229265,0.0, 1, 1,15,815939.759885606, 1,14,45
325,9.409258439063706E-007,0.0, 1, 1,15,3.013269633811433E-008,27,14,45
408,103312071.466067,0.0, 1, 1,15,166632.373332366, 1, 6,15
461,62089590.5216461,0.0, 1, 1,15,100144.500841365, 1, 6,15
4,243, 8
8,51378180.1161392,7056.14998848272, 1, 8,15,23520.4999616091, 1, 1,15
9,30877806.6288818,4240.68027314803, 1, 8,15,14135.6009104934, 1, 1,15
71,34673963.0979378,0.0, 1, 1,15,42054.5337755462, 1,19,15
93,20838728.1366316,0.0, 1, 1,15,25274.3822154416, 1,19,15
125,41886315.6404439,6007.79053936375, 1, 1,15,30038.9526968187, 1,18,15
137,25173284.68658,3610.62603077738, 1, 1,15,18053.1301538869, 1,18,15
138,619736787.294627,0.0, 1, 1,15,1281466.83351118,30,11,45
139,0.0,0.0, 1, 1,15,0.0, 1, 1,15
140,27.9429054604319,23.2887556158802,26, 6,60,39.9102646266964,30,14,15
141,26.0007147958537,24.5030935580002,26, 7,60,28.6392576969883, 7,14,15
142,26.5172490474129,23.0855448780459,26, 6,60,39.8303362657512,30,13,60
143,27.2300772539224,23.1871502469631,26, 6,60,39.7875943099957,30,13,60
144,25.4339576624943,23.9578356671387,25,14,15,28.8162602994422, 7,13,60
145,25.717336229174,24.4025179796689,25,21,60,28.6576801641468, 7,13,60
146,32363136.3307665,0.0, 1,14, 1,51806.1611247376,27,13,45
147,24665214.8646379,0.0, 1, 1,15,52336.8769501466, 7,16,15
148,0.350836653668423,0.339013246449947, 7,15,60,0.362414305759635,30,13,37
149,14069629.2513185,0.0, 1,13,30,20309.367550214,28, 6,60
150,14801439.689598,0.0, 1, 1,15,31127.785008483, 7,15,60
151,0.349577042506674,0.339005274319548, 7,15,60,0.358126519113335,28, 6,60
224,26.5172490474129,23.0855448780459,26, 6,60,39.8303362657512,30,13,60
225,68.8050394496816,26.9837774079261,30,13,60,92.5622884951943, 2, 5,60
258,25.4339576624943,23.5823646757894,25,14, 5,28.8162602994422, 7,13,60
259,72.5036286337498,49.3472770569682,30,13,60,93.3375916391791, 2, 5,60
260,0.0,0.0, 1, 1,15,0.0, 1, 1,15
291,598684538.913192,0.0, 1, 1,15,2128208.43337949,30,14,45
322,7.259657195390901E-006,0.0, 1, 1,15,1.696434992481954E-007,12,15,15
323,0.0,0.0, 1, 1,15,0.0, 1, 1,15
324,181125010.593309,0.0, 1, 1,15,385528.153712958, 7,14,45
325,1.109052902847907E-006,0.0, 1, 1,15,3.734612619155087E-008,17,15,15
408,103312071.466067,0.0, 1, 1,15,166632.373332366, 1, 6,15
461,62089590.5216461,0.0, 1, 1,15,100144.500841365, 1, 6,15
4,273, 9
8,49957541.918458,7056.14998848272, 1, 8,15,23520.4999616091, 1, 1,15
9,30024016.333888,4240.68027314803, 1, 8,15,14135.6009104934, 1, 1,15
71,33370272.5508959,0.0, 1, 1,15,42054.5337755462, 1,19,15
93,20055222.2879529,0.0, 1, 1,15,25274.3822154416, 1,19,15
125,40444445.9109965,6007.79053936375, 1, 1,15,30038.9526968187, 1,18,15
137,24306734.4391934,3610.62603077738, 1, 1,15,18053.1301538869, 1,18,15
138,749223882.267229,0.0, 1, 1,15,1575426.6166637,19,11,45
139,0.0,0.0, 1, 1,15,0.0, 1, 1,15
140,27.5595856088984,22.5535602481261,30, 7,30,42.0102178791772,22,14,15
141,25.6657697689811,24.0327543054602,30, 8,15,28.6265302365287, 7,14,15
142,26.0296170879751,22.3053227980092,30, 7,30,41.8935847387108,22,13,60
143,26.7946013484368,22.4294415230677,30, 7,30,41.8362762706731,22,13,60
144,25.047032001239,23.9045674277838,30, 7,60,28.6843086426093, 7,13,60
145,25.3564008851101,23.9709177716347,30, 7,60,28.5589781328822, 7,13,60
146,58722369.8809788,0.0, 1,14, 2,64915.1939822499, 9,13,60
147,2677501.40391018,0.0, 1, 1,15,23207.7427827817,20,18,60
148,0.355170925984739,0.342460115333027, 6,15,60,0.371634289180718,21,13,22
149,29791190.785392,0.0, 1,14, 1,29911.1240411559,15,24,60
150,1645534.39233335,0.0, 1, 1,15,15754.3271976949,20,18,60
151,0.354023149944504,0.342460626982087, 6,15,60,0.363133245551884,30,24,60
224,26.0296170879751,22.3053227980092,30, 7,30,41.9561945030412,22,13,60
225,59.3751255247048,18.0919800566787,20,13,60,86.1886576697191, 9, 6,60
258,25.047032001239,23.5389495699063,17,14, 3,28.6843086426093, 7,13,60
259,61.1712733077836,33.5666231255767,16,13,60,83.8971641515953, 9, 6,60
260,0.0,0.0, 1, 1,15,0.0, 1, 1,15
291,573563898.314218,0.0, 1, 1,15,2470691.82807271,22,14,45
322,1.246850366953822E-005,0.0, 1, 1,15,1.952230377355591E-007, 7,14,45
323,0.0,0.0, 1, 1,15,0.0, 1, 1,15
324,146974167.416129,0.0, 1, 1,15,385193.687950881, 7,14,45
325,2.967554095789637E-006,0.0, 1, 1,15,2.726778802752961E-008,22,14,60
408,99979423.9994198,0.0, 1, 1,15,166632.373332366, 1, 6,15
461,60086700.5048188,0.0, 1, 1,15,100144.500841365, 1, 6,15
4,304,10
8,51566344.1158321,7056.14998848272, 1,15,15,23520.4999616091, 1, 1,15
9,30990891.4361657,4240.68027314803, 1,15,15,14135.6009104934, 1, 1,15
71,34526772.2297234,0.0, 1, 1,15,42054.5337755462, 1,19,15
93,20750267.7988776,0.0, 1, 1,15,25274.3822154416, 1,19,15
125,41814222.1539715,6007.79053936375, 1, 1,15,30038.9526968187, 1,19,15
137,25129957.1742107,3610.62603077738, 1, 1,15,18053.1301538869, 1,19,15
138,991275701.698324,0.0, 1, 1,15,1922837.64469435,31,11,30
139,0.0,0.0, 1, 1,15,0.0, 1, 1,15
140,37.3059116492835,22.5712569919054, 1, 7,30,50.778807891028,17,14,30
141,36.0796095916854,24.2432955869721, 1, 8,15,41.65358772298,17,21,60
142,36.6750865543457,22.2208807746677, 1, 7,30,50.3830947690983,17,14,15
143,36.9904991018146,22.3960688832865, 1, 7,30,50.5727404428693,17,14,30
144,35.5977235040916,23.9977331291066, 1, 7,60,41.2287543787443,17,19,60
145,35.8386665478885,24.1262224934096, 1, 7,60,41.4353298343564,17,21,60
146,222366513.194977,11700.8828294289,29, 8,18,113741.684190271,15,13,60
147,0.0,0.0, 1, 1,15,0.0, 1, 1,15
148,0.375811640265705,0.360761108112729, 1, 6,60,0.392797666894397,31,13,37
149,129559918.509194,5384.96019997366, 1,12,35,70815.9779774394,15,24,60
150,0.0,0.0, 1, 1,15,0.0, 1, 1,15
151,0.374540886589606,0.358932201410885, 1,12,60,0.385874976314249,31,21,37
224,36.6750865543457,22.2208807746677, 1, 7,30,50.3830947690983,17,14,15
225,24.3327296432978,5.81872866374113,19,14,45,53.2096406195685,28,24,45
258,35.5977235040916,23.9858933966567, 1, 7,60,41.2287543787443,17,19,60
259,24.6710471547454,10.0281139752981,19,16, 7,48.4154205638571, 1, 1,15
260,0.0,0.0, 1, 1,15,0.0, 1, 1,15
291,0.0,0.0, 1, 1,15,0.0, 1, 1,15
322,0.0,0.0, 1, 1,15,0.0, 1, 1,15
323,0.0,0.0, 1, 1,15,0.0, 1, 1,15
324,0.0,0.0, 1, 1,15,0.0, 1, 1,15
325,0.0,0.0, 1, 1,15,0.0, 1, 1,15
408,103312071.466067,0.0, 1, 1,15,166632.373332366, 1, 6,15
461,62089590.5216461,0.0, 1, 1,15,100144.500841365, 1, 6,15
4,334,11
8,49769377.9187651,7056.14998848272, 1, 9,15,23520.4999616091, 1, 1,15
9,29910931.5266041,4240.68027314803, 1, 9,15,14135.6009104934, 1, 1,15
71,33517463.4191103,0.0, 1, 1,15,42054.5337755462, 1,20,15
93,20143682.625707,0.0, 1, 1,15,25274.3822154416, 1,20,15
125,40516539.3974689,6007.79053936375, 1, 1,15,30038.9526968187, 1,19,15
137,24350061.9515628,3610.62603077738, 1, 1,15,18053.1301538869, 1,19,15
138,969413849.161873,0.0, 1, 1,15,1921187.44614806,27,11,60
139,0.0,0.0, 1, 1,15,0.0, 1, 1,15
140,31.361257997607,18.8321336014456,11, 7,60,48.0695123156927, 6,14,45
141,30.6182396654247,22.6052432051908,11, 9,45,39.193683192097, 7,21,60
142,30.6941139100521,19.9999999999999,11, 7,45,47.780733260117, 6,14,45
143,31.0276859538295,19.4160668007228,11, 7,60,47.9251227879048, 6,14,45
144,30.0799734393917,22.1091771570387,11, 8,60,38.8349666272998, 7,20,60
145,30.3491065524082,22.3784394639701,11, 8,60,38.9992482480383, 7,20,60
146,221951158.15941,11620.6280797653,12, 9,32,112249.22760283,26,13,60
147,0.0,0.0, 1, 1,15,0.0, 1, 1,15
148,0.378442340645926,0.367014707298619,19, 8,15,0.394577223971461,22,14,60
149,131752282.353636,7278.40453103833,12, 9,45,62448.6450633498,23, 7,30
150,0.0,0.0, 1, 1,15,0.0, 1, 1,15
151,0.377715939539611,0.366486362029385, 5,14,60,0.388745533552363,23, 7,30
224,30.6941139100521,19.9999999999999,11, 7,45,47.780733260117, 6,14,45
225,23.7131159057537,6.93358952982165,27,14,45,47.5532622462035,19, 8,15
258,30.0799734393917,22.1091771570387,11, 8,60,38.8349666272998, 7,20,60
259,23.6752784951396,11.2318578143005,23,15,37,40.3627153335166,19,11,15
260,4148199.8237667,0.0, 1, 1,15,155915.459095288,11, 7,60
291,0.0,0.0, 1, 1,15,0.0, 1, 1,15
322,4148199.82376681,0.0, 1, 1,15,155915.459095293,11, 7,60
323,0.0,0.0, 1, 1,15,0.0, 1, 1,15
324,0.0,0.0, 1, 1,15,0.0, 1, 1,15
325,0.0,0.0, 1, 1,15,0.0, 1, 1,15
408,99979423.9994198,0.0, 1, 1,15,166632.373332366, 1, 7,15
461,60086700.5048188,0.0, 1, 1,15,100144.500841365, 1, 7,15
4,365,12
8,51754508.1155249,7056.14998848272, 1, 9,15,23520.4999616091, 1, 1,15
9,31103976.2434497,4240.68027314803, 1, 9,15,14135.6009104934, 1, 1,15
71,34379581.361509,0.0, 1, 1,15,42054.5337755462, 1,20,15
93,20661807.4611235,0.0, 1, 1,15,25274.3822154416, 1,20,15
125,41742128.6674991,6007.79053936375, 1, 1,15,30038.9526968187, 1,19,15
137,25086629.6618413,3610.62603077738, 1, 1,15,18053.1301538869, 1,19,15
138,1148970245.00602,0.0, 1, 1,15,2084048.19652533,31,12,30
139,0.0,0.0, 1, 1,15,0.0, 1, 1,15
140,28.078995575787,17.6133618603453,31, 7,30,41.2407940299502, 9,14,60
141,26.7979722374988,20.2786388375445,31, 9,30,31.1963847992838,28,22,15
142,27.4222899443603,19.9999999999998,31, 5,45,40.7603666506612, 9,14,45
143,27.7506427600737,18.8066809301727,31, 7,30,40.9958309941224, 9,14,60
144,26.1303477406052,20.,31, 9,15,30.814355309573,28,20,60
145,26.464159989052,20.1393194187723,31, 9,30,30.9846230205284,28,20,60
146,273641080.22841,16661.2123937708,25, 9,18,151014.090886729,31,14,45
147,0.0,0.0, 1, 1,15,0.0, 1, 1,15
148,0.385720961919659,0.369842420629725,25, 3,60,0.410222546021974,31,14,30
149,157569595.072733,9762.99849427973, 7,11,33,73538.1018421069,31,23,60
150,0.0,0.0, 1, 1,15,0.0, 1, 1,15
151,0.384089377445699,0.371054175644261,29,15,60,0.399522486593032,31,21,52
224,27.4222899443603,19.9999999999998,31, 5,45,40.7603666506612, 9,14,45
225,16.2420787142037,3.80835845962217,20,14,15,40.2726020238827,25, 4,30
258,26.1303477406052,20.,31, 9,15,30.814355309573,28,20,60
259,16.34037748734,6.06408014059786,16,19,60,34.2276367409855,25, 4,60
260,37029267.1494719,0.0, 1, 9,15,328944.775362722,31, 6,60
291,0.0,0.0, 1, 1,15,0.0, 1, 1,15
322,37029267.1494726,0.0, 1, 9,15,328944.775362723,31, 6,60
323,433143.461778069,0.0, 1, 1,15,24494.4736614734,31, 9,30
324,0.0,0.0, 1, 1,15,0.0, 1, 1,15
325,433143.461778082,0.0, 1, 1,15,24494.4736614738,31, 9,30
408,103312071.466067,0.0, 1, 1,15,166632.373332366, 1, 7,15
461,62089590.5216461,0.0, 1, 1,15,100144.500841365, 1, 7,15
End of Data
 Number of Records Written=         384
