Program Version,EnergyPlus, Version 8.4.0-09f5359d8a, YMD=2023.08.02 14:39
1,5,Environment Title[],Latitude[deg],Longitude[deg],Time Zone[],Elevation[m]
2,6,Day of Simulation[],Month[],Day of Month[],DST Indicator[1=yes 0=no],Hour[],StartMinute[],EndMinute[],DayType
3,3,Cumulative Day of Simulation[],Month[],Day of Month[],DST Indicator[1=yes 0=no],DayType  ! When Daily Report Variables Requested
4,2,Cumulative Days of Simulation[],Month[]  ! When Monthly Report Variables Requested
5,1,Cumulative Days of Simulation[] ! When Run Period Report Variables Requested
8,9,PERIM,Zone People Total Heating Energy [J] !Monthly  [Value,Min,Day,Hour,Minute,Max,Day,Hour,Minute]
9,9,CORE,Zone People Total Heating Energy [J] !Monthly  [Value,Min,Day,Hour,Minute,Max,Day,Hour,Minute]
71,9,PERIM,Zone Lights Electric Energy [J] !Monthly  [Value,Min,Day,Hour,Minute,Max,Day,Hour,Minute]
93,9,CORE,Zone Lights Electric Energy [J] !Monthly  [Value,Min,Day,Hour,Minute,Max,Day,Hour,Minute]
125,9,PERIM,Zone Electric Equipment Electric Energy [J] !Monthly  [Value,Min,Day,Hour,Minute,Max,Day,Hour,Minute]
137,9,CORE,Zone Electric Equipment Electric Energy [J] !Monthly  [Value,Min,Day,Hour,Minute,Max,Day,Hour,Minute]
138,9,PERIM,Zone Windows Total Transmitted Solar Radiation Energy [J] !Monthly  [Value,Min,Day,Hour,Minute,Max,Day,Hour,Minute]
139,9,CORE,Zone Windows Total Transmitted Solar Radiation Energy [J] !Monthly  [Value,Min,Day,Hour,Minute,Max,Day,Hour,Minute]
140,9,PERIM,Zone Mean Radiant Temperature [C] !Monthly [Value,Min,Day,Hour,Minute,Max,Day,Hour,Minute]
141,9,CORE,Zone Mean Radiant Temperature [C] !Monthly [Value,Min,Day,Hour,Minute,Max,Day,Hour,Minute]
142,9,PERIM,Zone Mean Air Temperature [C] !Monthly [Value,Min,Day,Hour,Minute,Max,Day,Hour,Minute]
143,9,PERIM,Zone Operative Temperature [C] !Monthly [Value,Min,Day,Hour,Minute,Max,Day,Hour,Minute]
144,9,CORE,Zone Mean Air Temperature [C] !Monthly [Value,Min,Day,Hour,Minute,Max,Day,Hour,Minute]
145,9,CORE,Zone Operative Temperature [C] !Monthly [Value,Min,Day,Hour,Minute,Max,Day,Hour,Minute]
146,9,PERIM,Zone Infiltration Total Heat Loss Energy [J] !Monthly  [Value,Min,Day,Hour,Minute,Max,Day,Hour,Minute]
147,9,PERIM,Zone Infiltration Total Heat Gain Energy [J] !Monthly  [Value,Min,Day,Hour,Minute,Max,Day,Hour,Minute]
148,9,PERIM,Zone Infiltration Air Change Rate [ach] !Monthly [Value,Min,Day,Hour,Minute,Max,Day,Hour,Minute]
149,9,CORE,Zone Infiltration Total Heat Loss Energy [J] !Monthly  [Value,Min,Day,Hour,Minute,Max,Day,Hour,Minute]
150,9,CORE,Zone Infiltration Total Heat Gain Energy [J] !Monthly  [Value,Min,Day,Hour,Minute,Max,Day,Hour,Minute]
151,9,CORE,Zone Infiltration Air Change Rate [ach] !Monthly [Value,Min,Day,Hour,Minute,Max,Day,Hour,Minute]
224,9,PERIM,Zone Air Temperature [C] !Monthly [Value,Min,Day,Hour,Minute,Max,Day,Hour,Minute]
225,9,PERIM,Zone Air Relative Humidity [%] !Monthly [Value,Min,Day,Hour,Minute,Max,Day,Hour,Minute]
258,9,CORE,Zone Air Temperature [C] !Monthly [Value,Min,Day,Hour,Minute,Max,Day,Hour,Minute]
259,9,CORE,Zone Air Relative Humidity [%] !Monthly [Value,Min,Day,Hour,Minute,Max,Day,Hour,Minute]
260,9,PERIM IDEAL LOADS AIR,Zone Ideal Loads Supply Air Total Heating Energy [J] !Monthly  [Value,Min,Day,Hour,Minute,Max,Day,Hour,Minute]
291,9,PERIM IDEAL LOADS AIR,Zone Ideal Loads Supply Air Total Cooling Energy [J] !Monthly  [Value,Min,Day,Hour,Minute,Max,Day,Hour,Minute]
322,9,PERIM IDEAL LOADS AIR,Zone Ideal Loads Zone Total Heating Energy [J] !Monthly  [Value,Min,Day,Hour,Minute,Max,Day,Hour,Minute]
323,9,CORE IDEAL LOADS AIR,Zone Ideal Loads Supply Air Total Heating Energy [J] !Monthly  [Value,Min,Day,Hour,Minute,Max,Day,Hour,Minute]
324,9,CORE IDEAL LOADS AIR,Zone Ideal Loads Supply Air Total Cooling Energy [J] !Monthly  [Value,Min,Day,Hour,Minute,Max,Day,Hour,Minute]
325,9,CORE IDEAL LOADS AIR,Zone Ideal Loads Zone Total Heating Energy [J] !Monthly  [Value,Min,Day,Hour,Minute,Max,Day,Hour,Minute]
408,9,DHW PERIM,Water Use Equipment Heating Energy [J] !Monthly  [Value,Min,Day,Hour,Minute,Max,Day,Hour,Minute]
461,9,DHW CORE,Water Use Equipment Heating Energy [J] !Monthly  [Value,Min,Day,Hour,Minute,Max,Day,Hour,Minute]
End of Data Dictionary
1,ARCHSIM,  37.57, 126.97,   9.00,  87.10
4,31, 1
8,51566344.1204384,7056.14998911314, 1,16,15,23520.4999637105, 1, 1,15
9,30990891.45479,4240.68027569648, 1,16,15,14135.6009189883, 1, 1,15
71,34526772.2328082,0.0, 1, 1,15,42054.5337793035, 1,20,15
93,20750267.8113475,0.0, 1, 1,15,25274.3822306303, 1,20,15
125,41814222.1577074,6007.79053990051, 1, 1,15,30038.9526995025, 1,20,15
137,25129957.1893125,3610.62603294719, 1, 1,15,18053.130164736, 1,20,15
138,1066767486.14858,0.0, 1, 1,15,2069179.46236641,14,12,30
139,0.0,0.0, 1, 1,15,0.0, 1, 1,15
140,26.144996683857,17.3831436102121,22, 8,45,40.0142379166674,27,15,45
141,24.9381891189539,19.6984724282152,22, 8,60,29.4000090371862, 4,22,60
142,25.5870917591274,19.9999999999998,30, 7,45,39.3867232042084,27,15,30
143,25.8660442214922,18.6915718051061,22, 8,45,39.6920825505124,27,15,30
144,24.2842882827282,19.9999999999999,22, 6,45,28.9095287233437, 4,20,60
145,24.611238700841,19.8492362141076,22, 8,60,29.1445722211586, 4,22,45
146,270424200.380712,10173.4807789076, 3,12, 2,137464.097541279,22,14,60
147,0.0,0.0, 1, 1,15,0.0, 1, 1,15
148,0.385736105699431,0.369995121566316, 2,11,30,0.405295208678324,23,14,30
149,155280097.665307,5149.56935817607, 3,12,14,70507.7270062462,23,24,60
150,0.0,0.0, 1, 1,15,0.0, 1, 1,15
151,0.384082340469989,0.367132843245251, 6,15,60,0.396267742652623,22,24,60
224,25.5870917591274,19.9999999999998,30, 7,45,39.3867232042084,27,15,30
225,15.4345493018736,3.98839125856971,23,14,22,34.9779063098243, 2, 7,30
258,24.2842882827282,19.9999999999999,22, 6,45,28.9095287233437, 4,20,60
259,15.6025577789226,5.48982373703161,14,19,60,31.0304114156289, 2, 7,60
260,64217986.2798586,0.0, 1, 1,15,344590.619383452,22, 8,45
291,0.0,0.0, 1, 1,15,0.0, 1, 1,15
322,64217986.2798599,0.0, 1, 1,15,344590.619383452,22, 8,45
323,1906732.05766907,0.0, 1, 1,15,55646.9309103659,22, 8,60
324,0.0,0.0, 1, 1,15,0.0, 1, 1,15
325,1906732.05766911,0.0, 1, 1,15,55646.9309103661,22, 8,60
408,103312071.475297,0.0, 1, 1,15,166632.373347254, 1, 7,15
461,62089590.558959,0.0, 1, 1,15,100144.500901547, 1, 7,15
4,59, 2
8,46551773.5281754,7056.14998911314, 1, 9,15,23520.4999637105, 1, 1,15
9,27977181.3388617,4240.68027569648, 1, 9,15,14135.6009189883, 1, 1,15
71,31204464.0642433,0.0, 1, 1,15,42054.5337793035, 1,20,15
93,18753591.6151277,0.0, 1, 1,15,25274.3822306303, 1,20,15
125,37776986.9148943,6007.79053990051, 1, 1,15,30038.9526995025, 1,19,15
137,22703616.495172,3610.62603294719, 1, 1,15,18053.130164736, 1,19,15
138,1078045987.45421,0.0, 1, 1,15,2064659.65245509, 9,12,30
139,0.0,0.0, 1, 1,15,0.0, 1, 1,15
140,29.9554544747748,17.6374848031337, 4, 7,30,47.3630293600312,28,15,30
141,28.292690226353,19.897773241241, 4, 8,60,37.3625464353328,28,21,30
142,29.266316868795,19.9999999999998, 4, 4,15,46.7554137998768,28,15,15
143,29.6108856717848,18.8187424015668, 4, 7,30,47.0572598269424,28,15,15
144,27.622287212766,20., 4, 8,45,36.7356468015321,28,20,60
145,27.9574887195594,19.9488866206205, 4, 8,60,37.0409921468465,28,20,60
146,254056079.373887,17446.4702238222,20,10,18,146386.032452347, 7,14,60
147,0.0,0.0, 1, 1, 7,0.0, 1, 1, 7
148,0.386469189837419,0.36924691447519, 3,15,60,0.408370051448875, 7,15,30
149,145070606.734797,8485.64949128418,21,12,33,84913.3946453859, 8, 1,45
150,0.0,0.0, 1, 1, 7,0.0, 1, 1, 7
151,0.384424972273298,0.370833430536405,23,15,60,0.403463806017152, 7,24,52
224,29.266316868795,19.9999999999998, 4, 4,15,46.7554137998768,28,15,15
225,14.5956058354661,3.0142180681243, 9,15,30,38.2007144167109, 3,22,15
258,27.622287212766,20., 4, 8,45,36.7372643567078,28,20,60
259,14.8850101853152,4.64205923477504, 9,17,60,36.6987191530081, 3,22,30
260,26821858.3311587,0.0, 1, 1, 7,293641.813724605, 4, 7,30
291,0.0,0.0, 1, 1, 7,0.0, 1, 1, 7
322,26821858.3311594,0.0, 1, 1, 7,293641.813724624, 4, 7,30
323,730434.339667429,0.0, 1, 1, 7,35121.6440036874, 4, 8,60
324,0.0,0.0, 1, 1, 7,0.0, 1, 1, 7
325,730434.339667452,0.0, 1, 1, 7,35121.6440036874, 4, 8,60
408,93314129.0744622,0.0, 1, 1, 7,166632.373347254, 1, 7,15
461,56080920.5048662,0.0, 1, 1, 7,100144.500901547, 1, 7,15
4,90, 3
8,51378180.1207287,7056.14998911314, 1, 9,15,23520.4999637105, 1, 1,15
9,30877806.6474381,4240.68027569648, 1, 9,15,14135.6009189883, 1, 1,15
71,34673963.1010358,0.0, 1, 1,15,42054.5337793035, 1,20,15
93,20838728.1491547,0.0, 1, 1,15,25274.3822306303, 1,20,15
125,41886315.6441862,6007.79053990051, 1, 1,15,30038.9526995025, 1,19,15
137,25173284.7017078,3610.62603294719, 1, 1,15,18053.130164736, 1,19,15
138,1080689646.71292,0.0, 1, 1,15,1751267.96777551, 6,12,15
139,0.0,0.0, 1, 1,15,0.0, 1, 1,15
140,32.667225969502,21.5821636374076,28, 7,15,47.3866541812258,19,15,15
141,31.5603751847393,25.4463149699478,28, 9,45,38.0342809846151,19,22,30
142,31.8963937991529,20.86647746421,28, 7,15,46.9952395937203,19,15,15
143,32.2818098843274,21.2243205508088,28, 7,15,47.1909468874731,19,15,15
144,30.9286749758544,24.8911432916818,28,10,30,37.5879657743598,19,21,30
145,31.2445250802968,25.1715005881403,28,10,15,37.8021177744153,19,21,60
146,257453244.587577,20171.8023554951,11,10,48,118915.205818424, 7,14,30
147,0.0,0.0, 1, 1, 7,0.0, 1, 1, 7
148,0.382318675391663,0.371027702566529,31, 7,30,0.399010784674365, 7,14,30
149,151163833.001367,10189.9204190438,29,12,20,69722.0870252481, 8, 3,60
150,0.0,0.0, 1, 1, 7,0.0, 1, 1, 7
151,0.381154180326004,0.367403486152841,30,15,60,0.394024230120116, 8, 3,60
224,31.8963937991529,20.86647746421,28, 7,15,46.9952395937203,19,15,15
225,16.0794062957471,4.08879660047796, 7,14,60,34.3662356359675,28, 6,60
258,30.9286749758544,24.8715060233357,28,10,15,37.5879657743598,19,21,30
259,16.3303921884344,5.92015017902236, 7,17,60,28.3853553133266,28, 7,60
260,0.0,0.0, 1, 1, 7,0.0, 1, 1, 7
291,0.0,0.0, 1, 1, 7,0.0, 1, 1, 7
322,0.0,0.0, 1, 1, 7,0.0, 1, 1, 7
323,0.0,0.0, 1, 1, 7,0.0, 1, 1, 7
324,0.0,0.0, 1, 1, 7,0.0, 1, 1, 7
325,0.0,0.0, 1, 1, 7,0.0, 1, 1, 7
408,103312071.475297,0.0, 1, 1, 7,166632.373347254, 1, 7,15
461,62089590.558959,0.0, 1, 1, 7,100144.500901547, 1, 7,15
4,120, 4
8,50145705.9226303,7056.14998911314, 1,15,15,23520.4999637105, 1, 1,15
9,30137101.1592831,4240.68027569648, 1,15,15,14135.6009189883, 1, 1,15
71,33223081.6856498,0.0, 1, 1,15,42054.5337793035, 1,19,15
93,19966761.962198,0.0, 1, 1,15,25274.3822306303, 1,19,15
125,40372352.4281313,6007.79053990051, 1, 1,15,30038.9526995025, 1,19,15
137,24263406.9414052,3610.62603294719, 1, 1,15,18053.130164736, 1,19,15
138,711162053.657773,0.0, 1, 1,15,1447110.09194124, 2,11,60
139,0.0,0.0, 1, 1,15,0.0, 1, 1,15
140,30.6149603574782,19.3314441728367,26, 6,45,47.3727455429528,10,14,60
141,30.0537812766285,22.2175968554285,26,10,30,40.1267172091422,10,21,60
142,30.0894144198387,20.,26, 6,45,46.9227215466346,10,14,45
143,30.3521873886584,19.6657220864183,26, 6,45,47.1436439730082,10,14,45
144,29.6809330920523,21.8513041013616,26,11,30,39.8406122050094,10,19,60
145,29.8673571843404,22.0398467778947,26,10,30,39.9260364098761,10,21,30
146,175824765.589004,13693.6652911316,27,10, 5,100917.595849481,11,22,60
147,0.0,0.0, 1, 1,15,0.0, 1, 1,15
148,0.371562070907929,0.362978710792034,19,12,60,0.384650740562503, 1,14,30
149,104481013.180808,5776.74876795827,19,19,60,62006.1442471225,11,22,60
150,0.0,0.0, 1, 1,15,0.0, 1, 1,15
151,0.371100235597696,0.356545686272141,19,12,60,0.382931902153231, 1, 3,22
224,30.0894144198387,20.,26, 6,45,46.9227215466346,10,14,45
225,25.9939604280942,8.02499982487471,11,16,60,54.3587848298508,20,23,45
258,29.6809330920523,21.8431107842229,26,11,15,39.8406122050094,10,19,60
259,25.654015263092,10.1780949722397,11,16,60,46.3362415766901,25, 2,30
260,1437586.00418472,0.0, 1, 1,15,85270.8456840407,26, 6,45
291,0.0,0.0, 1, 1,15,0.0, 1, 1,15
322,1437586.00418476,0.0, 1, 1,15,85270.8456840456,26, 6,45
323,0.0,0.0, 1, 1,15,0.0, 1, 1,15
324,0.0,0.0, 1, 1,15,0.0, 1, 1,15
325,0.0,0.0, 1, 1,15,0.0, 1, 1,15
408,99979424.0083523,0.0, 1, 1,15,166632.373347254, 1, 6,15
461,60086700.5409281,0.0, 1, 1,15,100144.500901547, 1, 6,15
4,151, 5
8,51378180.1207287,7056.14998911314, 1, 8,15,23520.4999637105, 1, 1,15
9,30877806.6474381,4240.68027569648, 1, 8,15,14135.6009189883, 1, 1,15
71,34673963.1010358,0.0, 1, 1,15,42054.5337793035, 1,19,15
93,20838728.1491547,0.0, 1, 1,15,25274.3822306303, 1,19,15
125,41886315.6441862,6007.79053990051, 1, 1,15,30038.9526995025, 1,18,15
137,25173284.7017078,3610.62603294719, 1, 1,15,18053.130164736, 1,18,15
138,494836716.308816,0.0, 1, 1,15,884675.677194729, 5,11,45
139,0.0,0.0, 1, 1,15,0.0, 1, 1,15
140,30.4561585492355,22.7143825559006,30, 6,60,38.4605542918405,17,14,30
141,30.3982084617703,25.0437540010168,30, 9,30,35.6316621822707,26,22,60
142,30.0938649729181,22.5099417696545,30, 6,60,38.0538260391002,17,14,30
143,30.2750117610768,22.6121621627775,30, 6,60,38.2571901654703,17,14,30
144,30.1919905589532,24.9334313658435,30, 9,30,35.6297701653852,26,21,60
145,30.2950995103618,24.9885926834301,30, 9,30,35.6131562334055,26,21,60
146,134813254.05386,2659.55774529641,21,19,60,80744.1797484694, 8, 1,60
147,0.0,0.0, 1, 1,15,0.0, 1, 1,15
148,0.364562360780175,0.355906613139186,23,15,60,0.373041227970859, 1, 3,60
149,82448128.2712889,0.0,11,18,60,52083.066853671,17, 5,60
150,4538.84372498411,0.0, 1, 1,15,2087.22741455975,21,19,60
151,0.364706316164387,0.351409649016441,23,15,60,0.376485664252277, 1, 3,60
224,30.0938649729181,22.5099417696545,30, 6,60,38.0538260391002,17,14,30
225,35.3851186060574,13.7123442179502, 8,15,30,64.1815166579006,29, 4,30
258,30.1919905589532,24.9334313658435,30, 9,30,35.6297701653852,26,21,60
259,34.5238272027985,16.6641224717209, 8,16,60,58.1488288840973,28,15,30
260,0.0,0.0, 1, 1,15,0.0, 1, 1,15
291,0.0,0.0, 1, 1,15,0.0, 1, 1,15
322,0.0,0.0, 1, 1,15,0.0, 1, 1,15
323,0.0,0.0, 1, 1,15,0.0, 1, 1,15
324,0.0,0.0, 1, 1,15,0.0, 1, 1,15
325,0.0,0.0, 1, 1,15,0.0, 1, 1,15
408,103312071.475297,0.0, 1, 1,15,166632.373347254, 1, 6,15
461,62089590.558959,0.0, 1, 1,15,100144.500901547, 1, 6,15
4,181, 6
8,49769377.9232109,7056.14998911314, 1, 8,15,23520.4999637105, 1, 1,15
9,29910931.5445793,4240.68027569648, 1, 8,15,14135.6009189883, 1, 1,15
71,33517463.422105,0.0, 1, 1,15,42054.5337793035, 1,19,15
93,20143682.6378124,0.0, 1, 1,15,25274.3822306303, 1,19,15
125,40516539.401089,6007.79053990051, 1, 1,15,30038.9526995025, 1,18,15
137,24350061.9661959,3610.62603294719, 1, 1,15,18053.130164736, 1,18,15
138,413857229.156638,0.0, 1, 1,15,724431.963480316, 1,11,30
139,0.0,0.0, 1, 1,15,0.0, 1, 1,15
140,33.694177296659,27.4034017482575, 1, 7,15,40.8488384176063,10,15,60
141,33.5535430903627,29.1733091839176, 1, 9,45,38.3749566714241,11,22,60
142,33.3935370008518,26.9635165733985, 1, 5,60,40.5756924631256,10,14,60
143,33.5438571487554,27.2193321696971, 1, 6,60,40.6967696906546,10,14,60
144,33.4003736542165,28.8765795359674, 1, 9,45,38.4344930470129,11,20,60
145,33.4769583722896,29.0249443599425, 1, 9,45,38.3593399338413,11,20,60
146,121067252.045991,10972.8046768082,15,10,37,63659.5225054271, 8, 3,15
147,0.0,0.0, 1, 1,15,0.0, 1, 1,15
148,0.362008919501794,0.355398543426417,15,15,60,0.369438194016162,12, 3,22
149,73653107.3604393,921.391039089329, 1,15,60,43831.5432033585,12, 7,15
150,0.0,0.0, 1, 1,15,0.0, 1, 1,15
151,0.362033084770768,0.352630468931055,15,15,60,0.372388106029603,12, 6,45
224,33.3935370008518,26.9635165733985, 1, 5,60,40.5756924631256,10,14,60
225,40.9947758895565,14.7856507107421, 1,14,60,69.2986069222932,14, 5,60
258,33.4003736542165,28.8732792357008, 1, 9,37,38.4344930470129,11,20,60
259,40.4964642901771,17.9316050317789, 1,15,15,63.1974275529165,14, 5,60
260,0.0,0.0, 1, 1,15,0.0, 1, 1,15
291,0.0,0.0, 1, 1,15,0.0, 1, 1,15
322,0.0,0.0, 1, 1,15,0.0, 1, 1,15
323,0.0,0.0, 1, 1,15,0.0, 1, 1,15
324,0.0,0.0, 1, 1,15,0.0, 1, 1,15
325,0.0,0.0, 1, 1,15,0.0, 1, 1,15
408,99979424.0083523,0.0, 1, 1,15,166632.373347254, 1, 6,15
461,60086700.5409281,0.0, 1, 1,15,100144.500901547, 1, 6,15
4,212, 7
8,51754508.1201481,7056.14998911314, 1,15,15,23520.4999637105, 1, 1,15
9,31103976.2621419,4240.68027569648, 1,15,15,14135.6009189883, 1, 1,15
71,34379581.3645807,0.0, 1, 1,15,42054.5337793035, 1,19,15
93,20661807.4735403,0.0, 1, 1,15,25274.3822306303, 1,19,15
125,41742128.6712286,6007.79053990051, 1, 1,15,30038.9526995025, 1,19,15
137,25086629.6769171,3610.62603294719, 1, 1,15,18053.130164736, 1,19,15
138,363604469.112305,0.0, 1, 1,15,708156.134454708,28,11,30
139,0.0,0.0, 1, 1,15,0.0, 1, 1,15
140,26.8308760138313,24.0005829561077,12, 6,30,35.6527280342871, 1,14,15
141,25.7525396021091,24.5314524897367,17,22,15,32.8391041231134, 1, 1,15
142,25.8824236424929,23.9585134892488, 3,14,15,35.435143852577, 1,13,60
143,26.356649828162,24.0440384412353,12, 4,30,35.4895450555633, 1,13,60
144,25.3475331202397,23.9544016321234, 3,14,15,32.5291289864458, 1, 1,15
145,25.5500363611744,24.2688384241501,17,21,60,32.6841165547796, 1, 1,15
146,26053393.314207,0.0, 1,14, 2,39458.0220794855, 1, 1,15
147,23287010.8727393,0.0, 1, 1,15,52674.0057741771,30,14,30
148,0.35051429255623,0.341326786280772,20,15,60,0.359632989406882, 1, 1,60
149,13120938.4245977,0.0, 1,14, 2,27814.49867072, 1, 3,60
150,13835276.0654879,0.0, 1, 1,15,30129.9711604156,30,14,45
151,0.349890200472247,0.341314450313094,20,15,60,0.361840323797988, 1, 3,60
224,25.8824236424929,23.5698139821253, 2,14, 5,35.435143852577, 1,13,60
225,71.9787278459164,43.0125677729205, 6,13,60,90.9422091132707, 3, 5,60
258,25.3475331202397,23.5483161372885,26,14, 3,32.5291289864458, 1, 1,15
259,74.1291229542227,53.6048125586919, 1,13,60,90.7609546823308, 2,14, 1
260,0.0,0.0, 1, 1,15,0.0, 1, 1,15
291,394002258.072569,0.0, 1, 1,15,1466955.9844113, 1,14,45
322,4.635467689695361E-006,0.0, 1, 1,15,1.233956936630420E-007, 6,14,45
323,0.0,0.0, 1, 1,15,0.0, 1, 1,15
324,141019415.964097,0.0, 1, 1,15,731626.231683779, 1,14,45
325,1.094451249628037E-006,0.0, 1, 1,15,5.637730282614939E-008, 1,15,15
408,103312071.475297,0.0, 1, 1,15,166632.373347254, 1, 6,15
461,62089590.558959,0.0, 1, 1,15,100144.500901547, 1, 6,15
4,243, 8
8,51378180.1207287,7056.14998911314, 1, 8,15,23520.4999637105, 1, 1,15
9,30877806.6474381,4240.68027569648, 1, 8,15,14135.6009189883, 1, 1,15
71,34673963.1010358,0.0, 1, 1,15,42054.5337793035, 1,19,15
93,20838728.1491547,0.0, 1, 1,15,25274.3822306303, 1,19,15
125,41886315.6441862,6007.79053990051, 1, 1,15,30038.9526995025, 1,18,15
137,25173284.7017078,3610.62603294719, 1, 1,15,18053.130164736, 1,18,15
138,571170978.680455,0.0, 1, 1,15,1230901.1064772,30,11,45
139,0.0,0.0, 1, 1,15,0.0, 1, 1,15
140,27.7918728887366,23.2986113951702,26, 6,60,39.5060542305314,30,14,15
141,25.9496368521893,24.4890815346752,26, 7,60,28.479567720045,13,14,15
142,26.4389815848,23.0993210667757,26, 6,60,39.3794720067931,30,13,60
143,27.1154272367683,23.198966230973,26, 6,60,39.3283912969022,30,13,60
144,25.4113311164688,23.9433143581748,25,14,15,28.6573982760863, 7,13,60
145,25.6804839843291,24.3898447554811,25,21,60,28.4971390207626, 7,13,60
146,31257725.6080815,0.0, 1,14, 1,49858.9656959764,27,13,45
147,24927868.0907465,0.0, 1, 1,15,52550.8146311513, 7,16,15
148,0.35062698525453,0.338905082124969, 7,15,60,0.361757472797971,30,13,37
149,13701774.2801789,0.0, 1,13,15,20165.9641990529,28, 6,60
150,14980055.5554204,0.0, 1, 1,15,31249.1617532886, 7,15,60
151,0.349432393338494,0.33889721273111, 7,15,60,0.358023543103411,28, 6,60
224,26.4389815848,23.0993210667757,26, 6,60,39.3794720067931,30,13,60
225,69.0450069405437,27.6294597009555,30,13,60,92.578589201135, 2, 5,60
258,25.4113311164688,23.5507089877859,25,14, 5,28.6573982760863, 7,13,60
259,72.6113660520359,49.6461097504656,30,13,60,93.4861200984155, 2, 5,60
260,0.0,0.0, 1, 1,15,0.0, 1, 1,15
291,570948828.997901,0.0, 1, 1,15,2093272.19101041,30,14,45
322,7.060387474666641E-006,0.0, 1, 1,15,1.502030499977991E-007,17,15,15
323,0.0,0.0, 1, 1,15,0.0, 1, 1,15
324,174259166.052803,0.0, 1, 1,15,372803.447241785, 7,14,45
325,1.309142021455045E-006,0.0, 1, 1,15,3.545324034348596E-008,12,14,45
408,103312071.475297,0.0, 1, 1,15,166632.373347254, 1, 6,15
461,62089590.558959,0.0, 1, 1,15,100144.500901547, 1, 6,15
4,273, 9
8,49957541.9229206,7056.14998911314, 1, 8,15,23520.4999637105, 1, 1,15
9,30024016.3519312,4240.68027569648, 1, 8,15,14135.6009189883, 1, 1,15
71,33370272.5538774,0.0, 1, 1,15,42054.5337793035, 1,19,15
93,20055222.3000052,0.0, 1, 1,15,25274.3822306303, 1,19,15
125,40444445.9146101,6007.79053990051, 1, 1,15,30038.9526995025, 1,18,15
137,24306734.4538005,3610.62603294719, 1, 1,15,18053.130164736, 1,18,15
138,724303015.345651,0.0, 1, 1,15,1528888.35274966,19,11,45
139,0.0,0.0, 1, 1,15,0.0, 1, 1,15
140,27.5179267316903,22.6081752125449,30, 7,30,41.7990596633459,22,14,15
141,25.6540311469472,24.0458769425712,30, 8,15,28.5191660810986, 7,14,15
142,26.0048608794185,22.3623700094929,30, 7,30,41.6233345061779,22,13,60
143,26.7613938055544,22.4852726110189,30, 7,30,41.5559168007737,22,13,60
144,25.0488607424348,23.9205176688809,30, 7,60,28.5912386840085, 7,13,60
145,25.351445944691,23.9854684137636,30, 7,60,28.461495892099, 7,13,60
146,57979098.8300205,0.0, 1,14, 2,52667.1664589903,16,13,60
147,2765866.0203496,0.0, 1, 1,15,23400.9687661272,20,18,60
148,0.355022517378832,0.342350057271366, 6,15,60,0.371096665319788,21,13,22
149,29422852.4050719,0.0, 1,14, 1,29780.4603311137,15,24,60
150,1699396.63925613,0.0, 1, 1,15,15905.9914816021,20,18,60
151,0.353906402716829,0.342350745707866, 6,15,60,0.363002803426454,30,24,60
224,26.0048608794185,22.3623700094929,30, 7,30,41.690898659135,22,13,60
225,59.4170549630729,18.2990227123103,20,13,60,85.5697184028228, 9, 6,60
258,25.0488607424348,23.5610742273268,17,14, 3,28.5912386840085, 7,13,60
259,61.1793322756166,33.5450479824158,16,13,60,83.7592791151789, 9, 6,60
260,0.0,0.0, 1, 1,15,0.0, 1, 1,15
291,571158148.975175,0.0, 1, 1,15,2481651.37124043,22,14,45
322,1.239737961051495E-005,0.0, 1, 1,15,2.431079337839037E-007,19,14,45
323,0.0,0.0, 1, 1,15,0.0, 1, 1,15
324,144206034.404907,0.0, 1, 1,15,374968.224101667, 7,14,45
325,2.825909548269984E-006,0.0, 1, 1,15,3.090008249273524E-008,15,14,60
408,99979424.0083523,0.0, 1, 1,15,166632.373347254, 1, 6,15
461,60086700.5409281,0.0, 1, 1,15,100144.500901547, 1, 6,15
4,304,10
8,51566344.1204384,7056.14998911314, 1,15,15,23520.4999637105, 1, 1,15
9,30990891.45479,4240.68027569648, 1,15,15,14135.6009189883, 1, 1,15
71,34526772.2328082,0.0, 1, 1,15,42054.5337793035, 1,19,15
93,20750267.8113475,0.0, 1, 1,15,25274.3822306303, 1,19,15
125,41814222.1577074,6007.79053990051, 1, 1,15,30038.9526995025, 1,19,15
137,25129957.1893125,3610.62603294719, 1, 1,15,18053.130164736, 1,19,15
138,990613352.256426,0.0, 1, 1,15,1881427.80447566,31,11,30
139,0.0,0.0, 1, 1,15,0.0, 1, 1,15
140,37.7402213433278,22.6933982344245, 1, 7,30,51.3495462531595,17,14,45
141,36.4527473029648,24.2654383512738, 1, 8,15,42.3633733475654,17,21,60
142,37.1112368894676,22.3515844570222, 1, 7,30,50.9287759588023,17,14,30
143,37.4257291163977,22.5224913457234, 1, 7,30,51.1259739369946,17,14,45
144,35.961408461571,24.0192885362415, 1, 7,60,41.9134434146927,17,19,60
145,36.2070778822679,24.1477285267882, 1, 7,60,42.1361725262007,17,21,60
146,225622847.626172,11880.0844494723,29, 8,18,114100.076690875,15,14,15
147,0.0,0.0, 1, 1,15,0.0, 1, 1,15
148,0.376212528954396,0.360789657394716, 1, 6,60,0.392314853873004,31,13,22
149,131017918.224165,5306.51448439827, 1,12,35,71684.272451627,15,24,60
150,0.0,0.0, 1, 1,15,0.0, 1, 1,15
151,0.374855453559651,0.358748989890075, 1,12,60,0.386141098597199,18,24,20
224,37.1112368894676,22.3515844570222, 1, 7,30,50.9287759588023,17,14,30
225,23.8769545571225,5.62758699575478,19,14,60,52.4667948143244,28,24,45
258,35.961408461571,24.0078443014069, 1, 7,60,41.9134434146927,17,19,60
259,24.2656614322154,9.7445218303699,19,16,40,48.4107541634543, 1, 1,15
260,0.0,0.0, 1, 1,15,0.0, 1, 1,15
291,0.0,0.0, 1, 1,15,0.0, 1, 1,15
322,0.0,0.0, 1, 1,15,0.0, 1, 1,15
323,0.0,0.0, 1, 1,15,0.0, 1, 1,15
324,0.0,0.0, 1, 1,15,0.0, 1, 1,15
325,0.0,0.0, 1, 1,15,0.0, 1, 1,15
408,103312071.475297,0.0, 1, 1,15,166632.373347254, 1, 6,15
461,62089590.558959,0.0, 1, 1,15,100144.500901547, 1, 6,15
4,334,11
8,49769377.9232109,7056.14998911314, 1, 9,15,23520.4999637105, 1, 1,15
9,29910931.5445793,4240.68027569648, 1, 9,15,14135.6009189883, 1, 1,15
71,33517463.422105,0.0, 1, 1,15,42054.5337793035, 1,20,15
93,20143682.6378124,0.0, 1, 1,15,25274.3822306303, 1,20,15
125,40516539.4010889,6007.79053990051, 1, 1,15,30038.9526995025, 1,19,15
137,24350061.9661959,3610.62603294719, 1, 1,15,18053.130164736, 1,19,15
138,928309644.237752,0.0, 1, 1,15,1886069.99780021,27,11,60
139,0.0,0.0, 1, 1,15,0.0, 1, 1,15
140,30.9979871862507,18.8815053270496,11, 7,60,48.6380954096621, 6,15,15
141,30.3037910398039,22.7016538340325,11, 9,45,39.7182928741548, 7,21,60
142,30.350257535326,19.9999999999999,11, 6,30,48.3051876608159, 6,14,60
143,30.6741223607884,19.4407526635248,11, 7,60,48.458159588969, 6,15,15
144,29.7758939606737,22.2146802959469,11, 8,60,39.3438739478946, 7,20,60
145,30.0398425002388,22.48320962874,11, 8,60,39.5146314632893, 7,20,60
146,217772442.523794,10437.5241911604,27,11,32,104124.970581925,22,15,45
147,0.0,0.0, 1, 1,15,0.0, 1, 1,15
148,0.377873824492162,0.366430613311301,19, 8,15,0.391984641835277,22,15,15
149,129383218.799524,5628.49397036667,28,11,45,61899.3336240259, 8,11,60
150,0.0,0.0, 1, 1,15,0.0, 1, 1,15
151,0.377198233901985,0.366639861363985, 5,14,60,0.387638238695776,23, 8,22
224,30.350257535326,19.9999999999999,11, 6,30,48.3051876608159, 6,14,60
225,23.9123312581704,7.84708185650125,27,14,60,48.338566489311,19, 8,15
258,29.7758939606737,22.2146802959469,11, 8,60,39.3438739478946, 7,20,60
259,23.9006830220501,12.1808639404299,23,15,45,41.2149527982269,19,11,15
260,5650206.52889144,0.0, 1, 1,15,151347.885209478,11, 7,60
291,0.0,0.0, 1, 1,15,0.0, 1, 1,15
322,5650206.52889159,0.0, 1, 1,15,151347.885209478,11, 7,60
323,0.0,0.0, 1, 1,15,0.0, 1, 1,15
324,0.0,0.0, 1, 1,15,0.0, 1, 1,15
325,0.0,0.0, 1, 1,15,0.0, 1, 1,15
408,99979424.0083523,0.0, 1, 1,15,166632.373347254, 1, 7,15
461,60086700.5409281,0.0, 1, 1,15,100144.500901547, 1, 7,15
4,365,12
8,51754508.1201481,7056.14998911314, 1, 9,15,23520.4999637105, 1, 1,15
9,31103976.2621419,4240.68027569648, 1, 9,15,14135.6009189883, 1, 1,15
71,34379581.3645807,0.0, 1, 1,15,42054.5337793035, 1,20,15
93,20661807.4735403,0.0, 1, 1,15,25274.3822306303, 1,20,15
125,41742128.6712286,6007.79053990051, 1, 1,15,30038.9526995025, 1,19,15
137,25086629.6769171,3610.62603294719, 1, 1,15,18053.130164736, 1,19,15
138,958580836.73697,0.0, 1, 1,15,2050962.44511113,31,12,30
139,0.0,0.0, 1, 1,15,0.0, 1, 1,15
140,25.3948528014345,17.4705614890183,31, 6,60,37.0193747107084, 5,15,30
141,24.4360021686604,19.874612173786,31, 9,15,27.9949890160986, 5,22,15
142,24.9089902053479,19.9999999999998,16, 4,15,36.5188711340718, 5,15,15
143,25.1519215033912,18.7352807445091,31, 6,60,36.7588213338294, 5,15,30
144,23.8417905218501,20.,31, 9,45,27.4873802751313, 5,20,60
145,24.1388963452552,19.937306086893,31, 9,15,27.719761049597, 5,22,15
146,246636807.297573,8915.36821409394,27,12,17,134577.07846185,31,15,15
147,0.0,0.0, 1, 1,15,0.0, 1, 1,15
148,0.382381853657315,0.36807133156016,25, 2,45,0.404189693266526,31,14,45
149,142394821.767451,4761.64302712962,27,12,17,69352.7579666149,31,23,60
150,0.0,0.0, 1, 1,15,0.0, 1, 1,15
151,0.381033246280791,0.367468323047939,29,15,60,0.396901556505443,31,21,60
224,24.9089902053479,19.9999999999998,16, 4,15,36.5188711340718, 5,15,15
225,17.6003326374058,4.65920804336492,20,14,45,41.340702863834,25, 3,60
258,23.8417905218501,20.,31, 9,45,27.4873802751313, 5,20,60
259,17.7257101257366,6.60017441663779,16,19,60,37.5551232096402,25, 4,45
260,65933791.5994332,0.0, 1, 9,15,343421.180791639,31, 6,60
291,0.0,0.0, 1, 1,15,0.0, 1, 1,15
322,65933791.5994345,0.0, 1, 9,15,343421.180791653,31, 6,60
323,1783276.88197218,0.0, 1, 1,15,47451.8122511561,31, 6,60
324,0.0,0.0, 1, 1,15,0.0, 1, 1,15
325,1783276.88197223,0.0, 1, 1,15,47451.8122511592,31, 6,60
408,103312071.475297,0.0, 1, 1,15,166632.373347254, 1, 7,15
461,62089590.558959,0.0, 1, 1,15,100144.500901547, 1, 7,15
End of Data
 Number of Records Written=         384
