Program Version,EnergyPlus, Version 8.4.0-09f5359d8a, YMD=2023.08.02 14:39
1,5,Environment Title[],Latitude[deg],Longitude[deg],Time Zone[],Elevation[m]
2,6,Day of Simulation[],Month[],Day of Month[],DST Indicator[1=yes 0=no],Hour[],StartMinute[],EndMinute[],DayType
3,3,Cumulative Day of Simulation[],Month[],Day of Month[],DST Indicator[1=yes 0=no],DayType  ! When Daily Report Variables Requested
4,2,Cumulative Days of Simulation[],Month[]  ! When Monthly Report Variables Requested
5,1,Cumulative Days of Simulation[] ! When Run Period Report Variables Requested
8,9,PERIM,Zone People Total Heating Energy [J] !Monthly  [Value,Min,Day,Hour,Minute,Max,Day,Hour,Minute]
9,9,CORE,Zone People Total Heating Energy [J] !Monthly  [Value,Min,Day,Hour,Minute,Max,Day,Hour,Minute]
71,9,PERIM,Zone Lights Electric Energy [J] !Monthly  [Value,Min,Day,Hour,Minute,Max,Day,Hour,Minute]
93,9,CORE,Zone Lights Electric Energy [J] !Monthly  [Value,Min,Day,Hour,Minute,Max,Day,Hour,Minute]
125,9,PERIM,Zone Electric Equipment Electric Energy [J] !Monthly  [Value,Min,Day,Hour,Minute,Max,Day,Hour,Minute]
137,9,CORE,Zone Electric Equipment Electric Energy [J] !Monthly  [Value,Min,Day,Hour,Minute,Max,Day,Hour,Minute]
138,9,PERIM,Zone Windows Total Transmitted Solar Radiation Energy [J] !Monthly  [Value,Min,Day,Hour,Minute,Max,Day,Hour,Minute]
139,9,CORE,Zone Windows Total Transmitted Solar Radiation Energy [J] !Monthly  [Value,Min,Day,Hour,Minute,Max,Day,Hour,Minute]
140,9,PERIM,Zone Mean Radiant Temperature [C] !Monthly [Value,Min,Day,Hour,Minute,Max,Day,Hour,Minute]
141,9,CORE,Zone Mean Radiant Temperature [C] !Monthly [Value,Min,Day,Hour,Minute,Max,Day,Hour,Minute]
142,9,PERIM,Zone Mean Air Temperature [C] !Monthly [Value,Min,Day,Hour,Minute,Max,Day,Hour,Minute]
143,9,PERIM,Zone Operative Temperature [C] !Monthly [Value,Min,Day,Hour,Minute,Max,Day,Hour,Minute]
144,9,CORE,Zone Mean Air Temperature [C] !Monthly [Value,Min,Day,Hour,Minute,Max,Day,Hour,Minute]
145,9,CORE,Zone Operative Temperature [C] !Monthly [Value,Min,Day,Hour,Minute,Max,Day,Hour,Minute]
146,9,PERIM,Zone Infiltration Total Heat Loss Energy [J] !Monthly  [Value,Min,Day,Hour,Minute,Max,Day,Hour,Minute]
147,9,PERIM,Zone Infiltration Total Heat Gain Energy [J] !Monthly  [Value,Min,Day,Hour,Minute,Max,Day,Hour,Minute]
148,9,PERIM,Zone Infiltration Air Change Rate [ach] !Monthly [Value,Min,Day,Hour,Minute,Max,Day,Hour,Minute]
149,9,CORE,Zone Infiltration Total Heat Loss Energy [J] !Monthly  [Value,Min,Day,Hour,Minute,Max,Day,Hour,Minute]
150,9,CORE,Zone Infiltration Total Heat Gain Energy [J] !Monthly  [Value,Min,Day,Hour,Minute,Max,Day,Hour,Minute]
151,9,CORE,Zone Infiltration Air Change Rate [ach] !Monthly [Value,Min,Day,Hour,Minute,Max,Day,Hour,Minute]
224,9,PERIM,Zone Air Temperature [C] !Monthly [Value,Min,Day,Hour,Minute,Max,Day,Hour,Minute]
225,9,PERIM,Zone Air Relative Humidity [%] !Monthly [Value,Min,Day,Hour,Minute,Max,Day,Hour,Minute]
258,9,CORE,Zone Air Temperature [C] !Monthly [Value,Min,Day,Hour,Minute,Max,Day,Hour,Minute]
259,9,CORE,Zone Air Relative Humidity [%] !Monthly [Value,Min,Day,Hour,Minute,Max,Day,Hour,Minute]
260,9,PERIM IDEAL LOADS AIR,Zone Ideal Loads Supply Air Total Heating Energy [J] !Monthly  [Value,Min,Day,Hour,Minute,Max,Day,Hour,Minute]
291,9,PERIM IDEAL LOADS AIR,Zone Ideal Loads Supply Air Total Cooling Energy [J] !Monthly  [Value,Min,Day,Hour,Minute,Max,Day,Hour,Minute]
322,9,PERIM IDEAL LOADS AIR,Zone Ideal Loads Zone Total Heating Energy [J] !Monthly  [Value,Min,Day,Hour,Minute,Max,Day,Hour,Minute]
323,9,CORE IDEAL LOADS AIR,Zone Ideal Loads Supply Air Total Heating Energy [J] !Monthly  [Value,Min,Day,Hour,Minute,Max,Day,Hour,Minute]
324,9,CORE IDEAL LOADS AIR,Zone Ideal Loads Supply Air Total Cooling Energy [J] !Monthly  [Value,Min,Day,Hour,Minute,Max,Day,Hour,Minute]
325,9,CORE IDEAL LOADS AIR,Zone Ideal Loads Zone Total Heating Energy [J] !Monthly  [Value,Min,Day,Hour,Minute,Max,Day,Hour,Minute]
408,9,DHW PERIM,Water Use Equipment Heating Energy [J] !Monthly  [Value,Min,Day,Hour,Minute,Max,Day,Hour,Minute]
461,9,DHW CORE,Water Use Equipment Heating Energy [J] !Monthly  [Value,Min,Day,Hour,Minute,Max,Day,Hour,Minute]
End of Data Dictionary
1,ARCHSIM,  37.57, 126.97,   9.00,  87.10
4,31, 1
8,51566344.1243173,7056.14998964381, 1,16,15,23520.4999654794, 1, 1,15
9,30990891.4329367,4240.68027270618, 1,16,15,14135.6009090206, 1, 1,15
71,34526772.2354048,0.0, 1, 1,15,42054.5337824663, 1,20,15
93,20750267.7967156,0.0, 1, 1,15,25274.3822128082, 1,20,15
125,41814222.1608526,6007.79054035233, 1, 1,15,30038.9527017616, 1,20,15
137,25129957.1715924,3610.62603040118, 1, 1,15,18053.1301520059, 1,20,15
138,162417857.025306,0.0, 1, 1,15,342620.150677479,30, 9,60
139,0.0,0.0, 1, 1,15,0.0, 1, 1,15
140,18.3395267169371,17.1538685456294,23, 7,60,19.8433969685006, 8,14,30
141,19.71962551339,19.4245616465279,15, 8,60,20.0542138740959, 8,23,60
142,20.,19.9999999999998,23, 2,45,20.0000000000002,15, 6,15
143,19.1697633584685,18.5769342728147,23, 7,60,19.9216984842503, 8,14,30
144,20.0015957851709,19.9999999999999,15, 2,45,20.1906376439902, 8,20,45
145,19.8606106492804,19.7122808232639,15, 8,60,20.0949356833922, 8,21,60
146,212276367.716101,25577.6425889394, 6,15,60,109217.996984153,23, 6,60
147,0.0,0.0, 1, 1,15,0.0, 1, 1,15
148,0.378609839775336,0.361478981156045, 6,15,60,0.3940061586239,23, 6,60
149,127621629.239048,15347.2056991903, 6,15,60,65720.2592528498,23, 6,60
150,0.0,0.0, 1, 1,15,0.0, 1, 1,15
151,0.378611585675878,0.361479481502855, 6,15,60,0.394004479749525,23, 6,60
224,20.,19.9999999999998,23, 2,45,20.0000000000002,15, 6,15
225,17.6214432902766,6.78896552985005,14,19,60,34.9336140109631, 2,22,45
258,20.0015957851709,19.9999999999999,15, 2,45,20.1906376439902, 8,20,45
259,17.6384918428276,6.24198393552,14,19,60,35.3060897865599, 2,22,30
260,596829014.708994,30386.4263904362, 8,14,15,382856.653289135,23, 6,60
291,0.0,0.0, 1, 1,15,0.0, 1, 1,15
322,596829014.709005,30386.4263904371, 8,14,15,382856.65328914,23, 6,60
323,104516043.29564,0.0, 2,20,15,74401.6951577236,23, 6,60
324,0.0,0.0, 1, 1,15,0.0, 1, 1,15
325,104516043.295643,0.0, 2,20,15,74401.6951577246,23, 6,60
408,103312071.483068,0.0, 1, 1,15,166632.373359787, 1, 7,15
461,62089590.5151773,0.0, 1, 1,15,100144.500830931, 1, 7,15
4,59, 2
8,46551773.531677,7056.14998964381, 1, 9,15,23520.4999654794, 1, 1,15
9,27977181.3191336,4240.68027270618, 1, 9,15,14135.6009090206, 1, 1,15
71,31204464.06659,0.0, 1, 1,15,42054.5337824663, 1,20,15
93,18753591.6019037,0.0, 1, 1,15,25274.3822128082, 1,20,15
125,37776986.9177357,6007.79054035233, 1, 1,15,30038.9527017616, 1,19,15
137,22703616.4791627,3610.62603040118, 1, 1,15,18053.1301520059, 1,19,15
138,203373708.846003,0.0, 1, 1,15,427429.011641762,28, 9,30
139,0.0,0.0, 1, 1,15,0.0, 1, 1,15
140,18.8586216682368,17.3839439605135, 8, 6,60,21.2962949351859,28,15,60
141,19.8944340008852,19.5209605875956,11, 8,60,20.6561615494274,28,23,15
142,20.0271492559687,19.9999999999998, 8, 5,45,20.9839654365682,28,15,60
143,19.4428854621027,18.6919719802568, 8, 6,60,21.140130185877,28,15,60
144,20.0366605197171,19.9999999999999, 8, 3,60,20.817635285836,27,20,45
145,19.9655472603012,19.7604802937978,11, 8,60,20.7125173043255,28,20,60
146,167547597.827548,14841.74357377,23,19,15,100297.880058858, 8, 6,60
147,0.0,0.0, 1, 1,15,0.0, 1, 1,15
148,0.374814641016236,0.358662373578346,23,15,60,0.390258395490789, 8, 6,60
149,100922983.483585,9468.59397009285,23,18,60,60262.9725207844, 8, 6,60
150,0.0,0.0, 1, 1,15,0.0, 1, 1,15
151,0.374825610873658,0.358061464985628,23,15,60,0.390258704937612, 8, 6,60
224,20.0271492559687,19.9999999999998, 8, 5,45,20.9839654365682,28,15,60
225,18.3642802820089,6.33969078490477, 9,17,60,37.9485000099063, 3,22,15
258,20.0366605197171,19.9999999999999, 8, 3,60,20.817635285836,27,20,45
259,18.451457163704,6.10310923777975, 9,17,60,38.3675926346383, 3,21,60
260,393773463.612208,0.0,23,12,60,344373.402163974, 8, 6,60
291,0.0,0.0, 1, 1,15,0.0, 1, 1,15
322,393773463.612217,0.0,23,12,60,344373.402163974, 8, 6,60
323,66637288.3938682,0.0, 5,20,15,64300.5355119575, 8, 6,60
324,0.0,0.0, 1, 1,15,0.0, 1, 1,15
325,66637288.3938702,0.0, 5,20,15,64300.5355119605, 8, 6,60
408,93314129.0814807,0.0, 1, 1,15,166632.373359787, 1, 7,15
461,56080920.4653214,0.0, 1, 1,15,100144.500830931, 1, 7,15
4,90, 3
8,51378180.1245934,7056.14998964381, 1, 9,15,23520.4999654794, 1, 1,15
9,30877806.6256646,4240.68027270618, 1, 9,15,14135.6009090206, 1, 1,15
71,34673963.1036434,0.0, 1, 1,15,42054.5337824663, 1,20,15
93,20838728.1344604,0.0, 1, 1,15,25274.3822128082, 1,20,15
125,41886315.6473368,6007.79054035233, 1, 1,15,30038.9527017616, 1,19,15
137,25173284.6839572,3610.62603040118, 1, 1,15,18053.1301520059, 1,19,15
138,331690778.693798,0.0, 1, 1,15,620029.831554337,22, 8,15
139,0.0,0.0, 1, 1,15,0.0, 1, 1,15
140,20.2708327333707,17.70999089378, 6, 7,30,24.0337273476493,30,16,15
141,20.6838232001335,19.6377452310165, 8, 7,60,22.8085376910557,30,22,60
142,20.5766917114568,19.9999999999998, 6, 1,30,23.8228964316655,30,18,30
143,20.4237622224138,18.85499544689, 6, 7,30,23.918423136533,30,16,15
144,20.5582112738343,19.9999999999999, 7, 8,30,22.953654930393,30,21,60
145,20.6210172369839,19.8188726155082, 8, 7,60,22.8677391283636,30,22,60
146,140730044.160784,7303.92233320376,19,19,60,82016.8778460023, 8, 6,60
147,0.0,0.0, 1, 1,15,0.0, 1, 1,15
148,0.368269795043425,0.355872846070673,19,15,60,0.383273187230229, 8, 6,60
149,84781820.6387227,3269.82963564327,19,19,60,49561.5723213287, 8, 6,60
150,0.0,0.0, 1, 1,15,0.0, 1, 1,15
151,0.368250157090821,0.353727490959516,19,15,60,0.383267570762931, 8, 6,60
224,20.5766917114568,19.9999999999998, 6, 1,30,23.8228964316655,30,18,30
225,22.9407892224495,8.50666151967636, 7,17,60,40.5736283646584,31,21,30
258,20.5582112738343,19.9999999999999, 7, 8,30,22.953654930393,30,21,60
259,23.0277930508795,8.44498928284648, 7,17,60,37.7289622621751,13, 1,30
260,169080815.355589,0.0, 1,12,60,280945.314294997, 8, 6,60
291,0.0,0.0, 1, 1,15,0.0, 1, 1,15
322,169080815.355593,0.0, 1,12,60,280945.314295011, 8, 6,60
323,18114498.317176,0.0, 1, 1,15,48886.6792360598, 8, 6,60
324,0.0,0.0, 1, 1,15,0.0, 1, 1,15
325,18114498.3171766,0.0, 1, 1,15,48886.679236063, 8, 6,60
408,103312071.483068,0.0, 1, 1,15,166632.373359787, 1, 7,15
461,62089590.5151773,0.0, 1, 1,15,100144.500830931, 1, 7,15
4,120, 4
8,50145705.9264023,7056.14998964381, 1,15,15,23520.4999654794, 1, 1,15
9,30137101.1380319,4240.68027270618, 1,15,15,14135.6009090206, 1, 1,15
71,33223081.6881484,0.0, 1, 1,15,42054.5337824663, 1,19,15
93,19966761.9481185,0.0, 1, 1,15,25274.3822128082, 1,19,15
125,40372352.431168,6007.79054035233, 1, 1,15,30038.9527017616, 1,19,15
137,24263406.9242961,3610.62603040118, 1, 1,15,18053.1301520059, 1,19,15
138,397241631.286495,0.0, 1, 1,15,942280.74542639,29, 7,60
139,0.0,0.0, 1, 1,15,0.0, 1, 1,15
140,24.3214070343191,18.2536732824236, 1, 7,15,31.7679640998783,11,15,60
141,24.3427560394338,20.2602497665154, 2, 7,60,30.2378038746901,12,22,15
142,24.1303976112732,19.9999999999999, 5, 6,15,31.5562522712953,11,15,60
143,24.2259023227961,19.1268366412119, 1, 7,15,31.6621081855868,11,15,60
144,24.1817887659618,20., 2, 7,30,30.3419663279065,12,19,60
145,24.2622724026979,20.1301248832577, 2, 7,60,30.2483525528324,12,21,30
146,116923135.388667,0.0,19,19,60,70342.4370506735,11,22,60
147,455.761707897975,0.0, 1, 1,15,455.761707897975,19,19,60
148,0.364354779201142,0.35530243533023, 8,15,60,0.37270083534142, 1, 9,60
149,70983377.3383521,0.0,19,19,45,42933.8442399379,13, 2,60
150,4552.68740312181,0.0, 1, 1,15,3739.7692333036,19,19,60
151,0.364433208474168,0.352014744193039,19,12,60,0.37302673299379, 1, 2,60
224,24.1303976112732,19.9999999999999, 5, 6,15,31.5562522712953,11,15,60
225,32.0892984015217,14.2036199936496,18,16,60,60.3166420604,20,23,45
258,24.1817887659618,20., 2, 7,30,30.3419663279065,12,19,60
259,31.6240569087571,15.7275853057947,18,17,30,52.9951456935708,25, 1,60
260,24353181.1498101,0.0, 1, 8,15,201360.840613577, 1, 7,15
291,0.0,0.0, 1, 1,15,0.0, 1, 1,15
322,24353181.1498107,0.0, 1, 8,15,201360.840613577, 1, 7,15
323,83547.5354495338,0.0, 1, 1,15,9814.28279199368, 2, 7,60
324,0.0,0.0, 1, 1,15,0.0, 1, 1,15
325,83547.5354495354,0.0, 1, 1,15,9814.28279199413, 2, 7,60
408,99979424.0158722,0.0, 1, 1,15,166632.373359787, 1, 6,15
461,60086700.4985586,0.0, 1, 1,15,100144.500830931, 1, 6,15
4,151, 5
8,51378180.1245934,7056.14998964381, 1, 8,15,23520.4999654794, 1, 1,15
9,30877806.6256646,4240.68027270618, 1, 8,15,14135.6009090206, 1, 1,15
71,34673963.1036434,0.0, 1, 1,15,42054.5337824663, 1,19,15
93,20838728.1344604,0.0, 1, 1,15,25274.3822128082, 1,19,15
125,41886315.6473368,6007.79054035233, 1, 1,15,30038.9527017616, 1,18,15
137,25173284.6839572,3610.62603040118, 1, 1,15,18053.1301520059, 1,18,15
138,475513966.51898,0.0, 1, 1,15,1063059.3891841,31, 7,30
139,0.0,0.0, 1, 1,15,0.0, 1, 1,15
140,29.8268943466748,22.4327193612396,11, 6,30,37.9626510669734,26,11,45
141,29.7181353794301,24.7961351046025,30, 6,60,35.3487415106788,26,22,60
142,29.5064878284129,22.2312259763107,11, 6,30,37.6039232752051,26,11,45
143,29.6666910875438,22.3319726687752,11, 6,30,37.7832871710893,26,11,45
144,29.5392954538194,24.6455750174281,30, 5,60,35.3668403362641,26,21,60
145,29.6287154166247,24.7635547737057,30, 5,60,35.3437073600184,26,21,60
146,128617829.436091,738.137135379438,11,18,60,77281.4309251161, 8, 1,60
147,0.0,0.0, 1, 1,15,0.0, 1, 1,15
148,0.363887339185387,0.354027990122007,25,15,60,0.375088987385682, 6, 8,52
149,78282543.5122911,0.0,11,18,60,49812.5711445966,17, 5,60
150,11808.330188693,0.0, 1, 1,15,2698.51197718139,11,18,60
151,0.363944435957367,0.35119331167796,25,15,60,0.374602826189354, 6, 6,50
224,29.5064878284129,22.2312259763107,11, 6,30,37.6039232752051,26,11,45
225,36.1478563050114,15.2017342457737, 8,16,60,65.0947497806715,29, 4,30
258,29.5392954538194,24.6455750174281,30, 5,60,35.3668403362641,26,21,60
259,35.4503882913398,17.0136578110083, 8,16,60,59.0368224873783,28,15,30
260,0.0,0.0, 1, 1,15,0.0, 1, 1,15
291,0.0,0.0, 1, 1,15,0.0, 1, 1,15
322,0.0,0.0, 1, 1,15,0.0, 1, 1,15
323,0.0,0.0, 1, 1,15,0.0, 1, 1,15
324,0.0,0.0, 1, 1,15,0.0, 1, 1,15
325,0.0,0.0, 1, 1,15,0.0, 1, 1,15
408,103312071.483068,0.0, 1, 1,15,166632.373359787, 1, 6,15
461,62089590.5151773,0.0, 1, 1,15,100144.500830931, 1, 6,15
4,181, 6
8,49769377.9269546,7056.14998964381, 1, 8,15,23520.4999654794, 1, 1,15
9,29910931.5234876,4240.68027270618, 1, 8,15,14135.6009090206, 1, 1,15
71,33517463.4246256,0.0, 1, 1,15,42054.5337824663, 1,19,15
93,20143682.6236082,0.0, 1, 1,15,25274.3822128082, 1,19,15
125,40516539.4041364,6007.79054035233, 1, 1,15,30038.9527017616, 1,18,15
137,24350061.9490257,3610.62603040118, 1, 1,15,18053.1301520059, 1,18,15
138,513696746.40641,0.0, 1, 1,15,1276847.36226056, 8, 7,60
139,0.0,0.0, 1, 1,15,0.0, 1, 1,15
140,35.7106929096961,28.2334121184131, 1, 6,15,44.4374082342597,11,11,15
141,35.3680576896674,30.0376267681386,15, 6,60,41.5550194255375,11,21,30
142,35.3555769017987,27.7085125682669, 1, 5,60,44.156415775632,11,10,15
143,35.5331349057475,27.9889740002784, 1, 6,15,44.2703959920021,11,10,30
144,35.147697397655,29.8786654155974,15, 5,60,41.5919517619519,11,19,45
145,35.2578775436612,29.9935675819094,15, 5,60,41.5432513689805,11,20,60
146,138523482.237184,10897.2882145877,18, 7, 3,78263.9537265651,11, 9,45
147,0.0,0.0, 1, 1,15,0.0, 1, 1,15
148,0.364348011749881,0.355627144269946,14,15,60,0.374473258043219, 1, 8,52
149,83210116.3984103,4997.0889339933, 1,15,60,48187.8866344209,12, 6,60
150,0.0,0.0, 1, 1,15,0.0, 1, 1,15
151,0.364115723043261,0.353666818176369,15,15,60,0.375593389236007,12, 6,30
224,35.3555769017987,27.7085125682669, 1, 5,60,44.156415775632,11,10,15
225,37.8336030983385,13.5890133736186, 1,15,15,68.1379927502555,14, 5,60
258,35.147697397655,29.8786654155974,15, 5,60,41.5919517619519,11,19,45
259,37.6167944468257,16.1899764744378, 1,15,15,61.5291718593178,14, 5,60
260,0.0,0.0, 1, 1,15,0.0, 1, 1,15
291,0.0,0.0, 1, 1,15,0.0, 1, 1,15
322,0.0,0.0, 1, 1,15,0.0, 1, 1,15
323,0.0,0.0, 1, 1,15,0.0, 1, 1,15
324,0.0,0.0, 1, 1,15,0.0, 1, 1,15
325,0.0,0.0, 1, 1,15,0.0, 1, 1,15
408,99979424.0158722,0.0, 1, 1,15,166632.373359787, 1, 6,15
461,60086700.4985586,0.0, 1, 1,15,100144.500830931, 1, 6,15
4,212, 7
8,51754508.1240411,7056.14998964381, 1,15,15,23520.4999654794, 1, 1,15
9,31103976.2402089,4240.68027270618, 1,15,15,14135.6009090206, 1, 1,15
71,34379581.3671662,0.0, 1, 1,15,42054.5337824663, 1,19,15
93,20661807.4589707,0.0, 1, 1,15,25274.3822128082, 1,19,15
125,41742128.6743683,6007.79054035233, 1, 1,15,30038.9527017616, 1,19,15
137,25086629.6592275,3610.62603040118, 1, 1,15,18053.1301520059, 1,19,15
138,380413240.146486,0.0, 1, 1,15,1070592.88231695,12, 8,30
139,0.0,0.0, 1, 1,15,0.0, 1, 1,15
140,27.1969355628307,24.0670814699443,12, 4,30,36.7132246581465, 1,14,15
141,25.9099843431204,24.5300262076484,17,22,15,33.744685819089, 1,14,15
142,26.2692286170319,23.9549780600236,17,14,15,36.5045358632986, 1,13,60
143,26.7330820899313,24.0447225766838,12, 4,30,36.5930200552819, 1,13,60
144,25.4573466899257,23.9691833729621, 3,14,15,33.7628182643568, 1,13,60
145,25.683665516523,24.2682051108732,17,21,60,33.7294120006066, 1,13,60
146,29628851.4206713,0.0, 1,14, 2,49033.9269178972, 1, 9,60
147,23144565.8251196,0.0, 1, 1,15,51673.1102114204,30,14,30
148,0.350995686341309,0.341349123583689,20,15,60,0.363802649523425, 1, 9,22
149,13708013.3332286,0.0, 1,14, 2,29382.9109065564, 1, 3,60
150,13828692.1604587,0.0, 1, 1,15,30117.3962658296,31,15,60
151,0.350048137596623,0.341337776421703,20,15,60,0.36261053475248, 1, 3,60
224,26.2692286170319,23.5043216212459,18,14, 4,36.5045358632986, 1,13,60
225,70.7291488628596,38.8337057658946,12,11,60,90.9820799006853, 2,14, 3
258,25.4573466899257,23.5803799528737,19,14, 3,33.7628182643568, 1,13,60
259,73.6892502953506,50.2991960510529, 1,13,60,90.5021444893714, 2,14, 1
260,0.0,0.0, 1, 1,15,0.0, 1, 1,15
291,380761190.503488,0.0, 1, 1,15,1614600.67678479, 1,14,45
322,3.485710919903795E-006,0.0, 1, 1,15,7.960352377267554E-008,21,15,15
323,0.0,0.0, 1, 1,15,0.0, 1, 1,15
324,151808671.934779,0.0, 1, 1,15,869640.829798457, 1,14,45
325,1.315113138389279E-006,0.0, 1, 1,15,6.660911822109483E-008, 1,14,45
408,103312071.483068,0.0, 1, 1,15,166632.373359787, 1, 6,15
461,62089590.5151773,0.0, 1, 1,15,100144.500830931, 1, 6,15
4,243, 8
8,51378180.1245934,7056.14998964381, 1, 8,15,23520.4999654794, 1, 1,15
9,30877806.6256646,4240.68027270618, 1, 8,15,14135.6009090206, 1, 1,15
71,34673963.1036434,0.0, 1, 1,15,42054.5337824663, 1,19,15
93,20838728.1344604,0.0, 1, 1,15,25274.3822128082, 1,19,15
125,41886315.6473368,6007.79054035233, 1, 1,15,30038.9527017616, 1,18,15
137,25173284.6839572,3610.62603040118, 1, 1,15,18053.1301520059, 1,18,15
138,391906524.75192,0.0, 1, 1,15,939215.847920714, 7, 8,30
139,0.0,0.0, 1, 1,15,0.0, 1, 1,15
140,27.2271218179447,23.204382817863,26, 6,60,35.2218068608488, 7,14,15
141,25.8067161549627,24.4429733807098,26, 7,30,29.1817924771728, 7,14,15
142,26.2431842861574,23.0093030283345,26, 6,60,35.1611297531663, 7,13,60
143,26.735153052051,23.1068429230988,26, 6,60,35.1745971987852, 7,13,60
144,25.3585857788932,23.9161847358794,25,14,15,29.3835910332809, 7,13,60
145,25.5826509669279,24.3523914159978,25,21,60,29.2319876422837, 7,13,60
146,29734452.3110401,0.0, 1,14, 1,40654.7619315381,27,11,60
147,24825624.7782739,0.0, 1, 1,15,52976.55363809, 7,15,60
148,0.35038987635881,0.338931241959845, 7,15,60,0.359061869564962,28, 8,52
149,13430899.2119526,0.0, 1,13,15,19779.5892552818,26, 6,60
150,14903251.5717503,0.0, 1, 1,15,31276.7508317976, 7,15,60
151,0.349360768375521,0.338919862136506, 7,15,60,0.358019152819292,28, 7, 7
224,26.2431842861574,23.0093030283345,26, 6,60,35.1611297531663, 7,13,60
225,69.486922851802,43.9460845802831,30,13,60,93.1279476340537, 2, 5,60
258,25.3585857788932,23.5621415082558,28,14, 3,29.3835910332809, 7,13,60
259,72.8163442882914,53.5983910544527,30,13,60,93.9708328880029, 2, 5,60
260,0.0,0.0, 1, 1,15,0.0, 1, 1,15
291,396503883.162229,0.0, 1, 1,15,1385063.27841256, 7,14,45
322,4.428121182365606E-006,0.0, 1, 1,15,1.093781065719668E-007, 3,15,15
323,0.0,0.0, 1, 1,15,0.0, 1, 1,15
324,149560149.764677,0.0, 1, 1,15,422149.086620963, 7,14,45
325,9.854705717194754E-007,0.0, 1, 1,15,3.169304818584351E-008,11,15,15
408,103312071.483068,0.0, 1, 1,15,166632.373359787, 1, 6,15
461,62089590.5151773,0.0, 1, 1,15,100144.500830931, 1, 6,15
4,273, 9
8,49957541.9266785,7056.14998964381, 1, 8,15,23520.4999654794, 1, 1,15
9,30024016.3307597,4240.68027270618, 1, 8,15,14135.6009090206, 1, 1,15
71,33370272.556387,0.0, 1, 1,15,42054.5337824663, 1,19,15
93,20055222.2858633,0.0, 1, 1,15,25274.3822128082, 1,19,15
125,40444445.9176522,6007.79054035233, 1, 1,15,30038.9527017616, 1,18,15
137,24306734.4366609,3610.62603040118, 1, 1,15,18053.1301520059, 1,18,15
138,288587205.595543,0.0, 1, 1,15,689185.86131466,16, 8,30
139,0.0,0.0, 1, 1,15,0.0, 1, 1,15
140,25.5457855501624,22.3886154244657,30, 7,30,30.6713005605436, 7,14,15
141,25.0120327181124,23.841686667498,30, 8,15,26.8267916088181, 7,14,15
142,24.8880336837825,22.1563834570768,30, 7,30,30.6203217291791, 7,13,60
143,25.2169096169725,22.2724994407712,30, 7,30,30.602026005139, 7,13,60
144,24.715044533663,23.7260350458338,30, 7,60,27.0195921723841, 7,13,60
145,24.8635386258877,23.786342647346,30, 7,60,26.8885921462758, 7,13,60
146,47429000.1447507,0.0, 1,14, 1,48041.7365462263,15,24,60
147,2785469.51276018,0.0, 1, 1,15,26840.6371567229,20,18,60
148,0.353685872839419,0.342375932426596, 6,15,60,0.361243404038882,30,24,60
149,27464384.9042767,0.0, 1,14, 1,29301.6459814154,15,24,60
150,1665418.97661371,0.0, 1, 1,15,16937.7696052953,20,18,60
151,0.35348862800651,0.342379532095829, 6,15,60,0.362406069701942,30,24,60
224,24.8880336837825,22.1563834570768,30, 7,30,30.6203217291791, 7,13,60
225,61.8680821175838,31.4603517973159,16,13,60,87.5560277213022, 9, 6,60
258,24.715044533663,23.5783604082429, 7,14, 3,27.0195921723841, 7,13,60
259,62.1463577076065,36.532225386791,16,13,60,85.4286458281996, 9, 6,60
260,0.0,0.0, 1, 1,15,0.0, 1, 1,15
291,206864363.33572,0.0, 1, 1,15,757772.937994873, 7,14,45
322,4.156393842755470E-006,0.0, 1, 1,15,6.374420991051011E-008,10,14,45
323,0.0,0.0, 1, 1,15,0.0, 1, 1,15
324,75310947.0296549,0.0, 1, 1,15,212210.182292058, 7,14,45
325,1.573992733916463E-006,0.0, 1, 1,15,2.719104941206751E-008, 6,14,45
408,99979424.0158722,0.0, 1, 1,15,166632.373359787, 1, 6,15
461,60086700.4985586,0.0, 1, 1,15,100144.500830931, 1, 6,15
4,304,10
8,51566344.1243173,7056.14998964381, 1,15,15,23520.4999654794, 1, 1,15
9,30990891.4329367,4240.68027270618, 1,15,15,14135.6009090206, 1, 1,15
71,34526772.2354048,0.0, 1, 1,15,42054.5337824663, 1,19,15
93,20750267.7967156,0.0, 1, 1,15,25274.3822128082, 1,19,15
125,41814222.1608526,6007.79054035233, 1, 1,15,30038.9527017616, 1,19,15
137,25129957.1715924,3610.62603040118, 1, 1,15,18053.1301520059, 1,19,15
138,228858156.305976,0.0, 1, 1,15,454241.737583536, 1, 9,30
139,0.0,0.0, 1, 1,15,0.0, 1, 1,15
140,23.5566838285675,18.6328632686131,24, 7,30,29.037916211446, 5,15,60
141,24.0710316213019,20.6614911742542,31,18,60,28.2420180571655, 5,22,60
142,23.4891006357895,19.9999999999999,31, 3,30,28.9094767945428, 5,15,60
143,23.5228922321785,19.3164316343066,24, 7,30,28.9736965029944, 5,15,60
144,24.0426161668447,20.3309939574201,31,10,30,28.4641179615663, 5,21,60
145,24.0568238940733,20.5093361342361,31,10,30,28.3359161226919, 5,21,60
146,89282697.3374449,0.0,14,18,45,58327.6572522501,15,24,60
147,19850.2640100061,0.0, 1, 1,15,9296.5149157676,14,18,60
148,0.359792895979729,0.351566383703726,22,15,60,0.369287950070806,24, 6,60
149,57301376.5454182,0.0,14,18,45,37902.744644128,15,24,60
150,14057.8863876571,0.0, 1, 1,15,6143.56523592707,14,18,60
151,0.360470294673557,0.350233705030085,22,15,60,0.370483396579213,24, 6,60
224,23.4891006357895,19.9999999999999,31, 3,30,28.9094767945428, 5,15,60
225,41.9362166275692,18.1233160576163,19,15,30,70.1774808689626,28,24,15
258,24.0426161668447,20.3309939574201,31,10,30,28.4641179615663, 5,21,60
259,40.722280395104,18.7133981799121,19,15,30,65.4326894707983,28,24,30
260,13784501.6720232,0.0, 1, 1,15,138714.471937759,24, 6,60
291,0.0,0.0, 1, 1,15,0.0, 1, 1,15
322,13784501.6720236,0.0, 1, 1,15,138714.471937759,24, 6,60
323,0.0,0.0, 1, 1,15,0.0, 1, 1,15
324,0.0,0.0, 1, 1,15,0.0, 1, 1,15
325,0.0,0.0, 1, 1,15,0.0, 1, 1,15
408,103312071.483068,0.0, 1, 1,15,166632.373359787, 1, 6,15
461,62089590.5151773,0.0, 1, 1,15,100144.500830931, 1, 6,15
4,334,11
8,49769377.9269546,7056.14998964381, 1, 9,15,23520.4999654794, 1, 1,15
9,29910931.5234876,4240.68027270618, 1, 9,15,14135.6009090206, 1, 1,15
71,33517463.4246256,0.0, 1, 1,15,42054.5337824663, 1,20,15
93,20143682.6236082,0.0, 1, 1,15,25274.3822128082, 1,20,15
125,40516539.4041364,6007.79054035233, 1, 1,15,30038.9527017616, 1,19,15
137,24350061.9490257,3610.62603040118, 1, 1,15,18053.1301520059, 1,19,15
138,152558702.02036,0.0, 1, 1,15,317580.884701393, 6, 9,30
139,0.0,0.0, 1, 1,15,0.0, 1, 1,15
140,19.3232286644514,17.4771992249723,27, 7,60,22.4402018959969, 7,16,15
141,20.2005878945451,19.5503895899249,27, 7,60,22.2660464524473, 7,24,15
142,20.1626616694704,19.9999999999998,27, 6,45,22.4949753569856, 7,15,45
143,19.7429451669608,18.7385996124861,27, 7,60,22.4642422534281, 7,15,60
144,20.2905038489916,19.9999999999999,24, 1,45,22.6228982161371, 7,23,60
145,20.2455458717683,19.7751947949624,27, 7,60,22.4435186884519, 7,23,60
146,117164344.289001,5508.30280221938, 7,13,60,81728.2062787263,30,24,60
147,0.0,0.0, 1, 1,15,0.0, 1, 1,15
148,0.36534742217617,0.351706959441266, 6,15,60,0.38082223586029,23, 8,60
149,71138289.388676,2305.24661797398, 7,13,60,47989.7564770328,23, 7,60
150,0.0,0.0, 1, 1,15,0.0, 1, 1,15
151,0.365505476157169,0.350450389618832, 6,15,60,0.38083103296722,23, 8,60
224,20.1626616694704,19.9999999999998,27, 6,45,22.4949753569856, 7,15,45
225,36.9832026618108,15.8180878009788,23,13,60,62.1337958376815,19,11,30
258,20.2905038489916,19.9999999999999,24, 1,45,22.6228982161371, 7,23,60
259,36.6616094862197,15.4045055882021,23,13,15,61.8299570334099,19,12,45
260,254801368.50089,0.0, 1,11,45,299052.617424934,27, 6,60
291,0.0,0.0, 1, 1,15,0.0, 1, 1,15
322,254801368.500897,0.0, 1,11,45,299052.617424953,27, 6,60
323,28624686.2512161,0.0, 1, 1,15,45871.3663827797,23, 6,60
324,0.0,0.0, 1, 1,15,0.0, 1, 1,15
325,28624686.2512171,0.0, 1, 1,15,45871.36638278,23, 6,60
408,99979424.0158722,0.0, 1, 1,15,166632.373359787, 1, 7,15
461,60086700.4985586,0.0, 1, 1,15,100144.500830931, 1, 7,15
4,365,12
8,51754508.1240411,7056.14998964381, 1, 9,15,23520.4999654794, 1, 1,15
9,31103976.2402089,4240.68027270618, 1, 9,15,14135.6009090206, 1, 1,15
71,34379581.3671662,0.0, 1, 1,15,42054.5337824663, 1,20,15
93,20661807.4589707,0.0, 1, 1,15,25274.3822128082, 1,20,15
125,41742128.6743683,6007.79054035233, 1, 1,15,30038.9527017616, 1,19,15
137,25086629.6592275,3610.62603040118, 1, 1,15,18053.1301520059, 1,19,15
138,142220220.191535,0.0, 1, 1,15,263902.130899717,31, 9,45
139,0.0,0.0, 1, 1,15,0.0, 1, 1,15
140,18.4079999484077,17.1562103954597,18, 6,60,19.6492345361763,28,15,30
141,19.7311525539227,19.4290295523251,17, 8,60,20.0471736866285,28,23,60
142,20.,19.9999999999998,31, 8,60,20.0000000000001,31,19,30
143,19.2039999742039,18.5781051977298,18, 6,60,19.8246172680881,28,15,30
144,20.0028719238877,19.9999999999999,16, 5,30,20.2345623222589,28,20,60
145,19.8670122389052,19.7145147761625,17, 8,60,20.1150065074995,28,22,60
146,195827881.281738,28576.008434703,11,15,60,111110.943877026,31, 9,60
147,0.0,0.0, 1, 1,15,0.0, 1, 1,15
148,0.37616889573205,0.361402814604474,29,15,60,0.394323070409876,31,24,60
149,117729376.714168,17388.9838266676,11,15,60,66545.6674673626,31, 9,60
150,0.0,0.0, 1, 1,15,0.0, 1, 1,15
151,0.376172329784965,0.361403954443561,29,15,60,0.394320913867253,31,24,60
224,20.,19.9999999999998,31, 8,60,20.0000000000001,31,19,30
225,20.2678133423796,7.87025051168347,16,19,60,40.204456170971,25, 4,30
258,20.0028719238877,19.9999999999999,16, 5,30,20.2345623222589,28,20,60
259,20.2758165103141,7.42857748310106,16,19,60,40.8223603704671,25, 4,15
260,551178659.249376,44583.5196906862,29,15,60,377907.346207596,18, 6,60
291,0.0,0.0, 1, 1,15,0.0, 1, 1,15
322,551178659.249388,44583.5196906862,29,15,60,377907.346207614,18, 6,60
323,93090106.3149458,0.0, 7,20,15,71557.6182166063,17, 7,60
324,0.0,0.0, 1, 1,15,0.0, 1, 1,15
325,93090106.3149485,0.0, 7,20,15,71557.6182166068,17, 7,60
408,103312071.483068,0.0, 1, 1,15,166632.373359787, 1, 7,15
461,62089590.5151773,0.0, 1, 1,15,100144.500830931, 1, 7,15
End of Data
 Number of Records Written=         384
