Program Version,EnergyPlus, Version 8.4.0-09f5359d8a, YMD=2023.08.02 14:39
1,5,Environment Title[],Latitude[deg],Longitude[deg],Time Zone[],Elevation[m]
2,6,Day of Simulation[],Month[],Day of Month[],DST Indicator[1=yes 0=no],Hour[],StartMinute[],EndMinute[],DayType
3,3,Cumulative Day of Simulation[],Month[],Day of Month[],DST Indicator[1=yes 0=no],DayType  ! When Daily Report Variables Requested
4,2,Cumulative Days of Simulation[],Month[]  ! When Monthly Report Variables Requested
5,1,Cumulative Days of Simulation[] ! When Run Period Report Variables Requested
8,9,PERIM,Zone People Total Heating Energy [J] !Monthly  [Value,Min,Day,Hour,Minute,Max,Day,Hour,Minute]
9,9,CORE,Zone People Total Heating Energy [J] !Monthly  [Value,Min,Day,Hour,Minute,Max,Day,Hour,Minute]
71,9,PERIM,Zone Lights Electric Energy [J] !Monthly  [Value,Min,Day,Hour,Minute,Max,Day,Hour,Minute]
93,9,CORE,Zone Lights Electric Energy [J] !Monthly  [Value,Min,Day,Hour,Minute,Max,Day,Hour,Minute]
125,9,PERIM,Zone Electric Equipment Electric Energy [J] !Monthly  [Value,Min,Day,Hour,Minute,Max,Day,Hour,Minute]
137,9,CORE,Zone Electric Equipment Electric Energy [J] !Monthly  [Value,Min,Day,Hour,Minute,Max,Day,Hour,Minute]
138,9,PERIM,Zone Windows Total Transmitted Solar Radiation Energy [J] !Monthly  [Value,Min,Day,Hour,Minute,Max,Day,Hour,Minute]
139,9,CORE,Zone Windows Total Transmitted Solar Radiation Energy [J] !Monthly  [Value,Min,Day,Hour,Minute,Max,Day,Hour,Minute]
140,9,PERIM,Zone Mean Radiant Temperature [C] !Monthly [Value,Min,Day,Hour,Minute,Max,Day,Hour,Minute]
141,9,CORE,Zone Mean Radiant Temperature [C] !Monthly [Value,Min,Day,Hour,Minute,Max,Day,Hour,Minute]
142,9,PERIM,Zone Mean Air Temperature [C] !Monthly [Value,Min,Day,Hour,Minute,Max,Day,Hour,Minute]
143,9,PERIM,Zone Operative Temperature [C] !Monthly [Value,Min,Day,Hour,Minute,Max,Day,Hour,Minute]
144,9,CORE,Zone Mean Air Temperature [C] !Monthly [Value,Min,Day,Hour,Minute,Max,Day,Hour,Minute]
145,9,CORE,Zone Operative Temperature [C] !Monthly [Value,Min,Day,Hour,Minute,Max,Day,Hour,Minute]
146,9,PERIM,Zone Infiltration Total Heat Loss Energy [J] !Monthly  [Value,Min,Day,Hour,Minute,Max,Day,Hour,Minute]
147,9,PERIM,Zone Infiltration Total Heat Gain Energy [J] !Monthly  [Value,Min,Day,Hour,Minute,Max,Day,Hour,Minute]
148,9,PERIM,Zone Infiltration Air Change Rate [ach] !Monthly [Value,Min,Day,Hour,Minute,Max,Day,Hour,Minute]
149,9,CORE,Zone Infiltration Total Heat Loss Energy [J] !Monthly  [Value,Min,Day,Hour,Minute,Max,Day,Hour,Minute]
150,9,CORE,Zone Infiltration Total Heat Gain Energy [J] !Monthly  [Value,Min,Day,Hour,Minute,Max,Day,Hour,Minute]
151,9,CORE,Zone Infiltration Air Change Rate [ach] !Monthly [Value,Min,Day,Hour,Minute,Max,Day,Hour,Minute]
224,9,PERIM,Zone Air Temperature [C] !Monthly [Value,Min,Day,Hour,Minute,Max,Day,Hour,Minute]
225,9,PERIM,Zone Air Relative Humidity [%] !Monthly [Value,Min,Day,Hour,Minute,Max,Day,Hour,Minute]
258,9,CORE,Zone Air Temperature [C] !Monthly [Value,Min,Day,Hour,Minute,Max,Day,Hour,Minute]
259,9,CORE,Zone Air Relative Humidity [%] !Monthly [Value,Min,Day,Hour,Minute,Max,Day,Hour,Minute]
260,9,PERIM IDEAL LOADS AIR,Zone Ideal Loads Supply Air Total Heating Energy [J] !Monthly  [Value,Min,Day,Hour,Minute,Max,Day,Hour,Minute]
291,9,PERIM IDEAL LOADS AIR,Zone Ideal Loads Supply Air Total Cooling Energy [J] !Monthly  [Value,Min,Day,Hour,Minute,Max,Day,Hour,Minute]
322,9,PERIM IDEAL LOADS AIR,Zone Ideal Loads Zone Total Heating Energy [J] !Monthly  [Value,Min,Day,Hour,Minute,Max,Day,Hour,Minute]
323,9,CORE IDEAL LOADS AIR,Zone Ideal Loads Supply Air Total Heating Energy [J] !Monthly  [Value,Min,Day,Hour,Minute,Max,Day,Hour,Minute]
324,9,CORE IDEAL LOADS AIR,Zone Ideal Loads Supply Air Total Cooling Energy [J] !Monthly  [Value,Min,Day,Hour,Minute,Max,Day,Hour,Minute]
325,9,CORE IDEAL LOADS AIR,Zone Ideal Loads Zone Total Heating Energy [J] !Monthly  [Value,Min,Day,Hour,Minute,Max,Day,Hour,Minute]
408,9,DHW PERIM,Water Use Equipment Heating Energy [J] !Monthly  [Value,Min,Day,Hour,Minute,Max,Day,Hour,Minute]
461,9,DHW CORE,Water Use Equipment Heating Energy [J] !Monthly  [Value,Min,Day,Hour,Minute,Max,Day,Hour,Minute]
End of Data Dictionary
1,ARCHSIM,  37.57, 126.97,   9.00,  87.10
4,31, 1
8,51566344.1245814,7056.14998967995, 1,16,15,23520.4999655998, 1, 1,15
9,30990891.4374834,4240.68027332831, 1,16,15,14135.6009110944, 1, 1,15
71,34526772.2355817,0.0, 1, 1,15,42054.5337826817, 1,20,15
93,20750267.7997597,0.0, 1, 1,15,25274.3822165161, 1,20,15
125,41814222.1610663,6007.7905403831, 1, 1,15,30038.9527019155, 1,20,15
137,25129957.1752789,3610.62603093087, 1, 1,15,18053.1301546544, 1,20,15
138,614102845.73462,0.0, 1, 1,15,1600817.10892744,30,16,15
139,0.0,0.0, 1, 1,15,0.0, 1, 1,15
140,20.9484052343318,17.2181467682847,22, 8,45,29.4876918471372,30,17,45
141,20.8795196549787,19.4931292415105,22, 8,60,23.2254380908826, 4,23,60
142,21.3877744666198,19.9999999999998,23,10,30,29.2245200567763, 4,16,60
143,21.1680898504758,18.6090733841424,22, 8,45,29.3510260667147,30,17,30
144,20.5518008671556,19.9999999999999,23, 9,60,22.9480427383018, 4,22,60
145,20.7156602610671,19.7465646207552,22, 8,60,23.0686380336839, 4,22,60
146,225770331.062745,12291.3600531937, 6,14, 5,109002.58807886,23, 6,60
147,0.0,0.0, 1, 1,15,0.0, 1, 1,15
148,0.380200597089252,0.362608884081047, 8,12,60,0.393805185216673,23, 6,60
149,130441801.443255,5220.92604117515, 6,15,50,65491.228669854,23, 6,60
150,0.0,0.0, 1, 1,15,0.0, 1, 1,15
151,0.37913690372726,0.36185246882909, 6,15,60,0.393805560238575,23, 6,60
224,21.3877744666198,19.9999999999998,23,10,30,29.2245200567763, 4,16,60
225,17.2069394709389,4.86759000879634,16,16,60,33.9943092718516, 2,24,30
258,20.5518008671556,19.9999999999999,23, 9,60,22.9480427383018, 4,22,60
259,17.3327369857631,6.04321380948022,14,20,15,34.4031693555027, 2, 7,45
260,294650461.983984,0.0, 1,13,45,364649.896920399,22, 8,45
291,0.0,0.0, 1, 1,15,0.0, 1, 1,15
322,294650461.98399,0.0, 1,13,45,364649.896920404,22, 8,45
323,33837511.8777585,0.0, 1, 1,15,65069.5128752195,22, 8,60
324,0.0,0.0, 1, 1,15,0.0, 1, 1,15
325,33837516.9485641,0.0, 1, 1,15,65069.5128752204,22, 8,60
408,103312071.483596,0.0, 1, 1,15,166632.373360639, 1, 7,15
461,62089590.5242858,0.0, 1, 1,15,100144.500845622, 1, 7,15
4,59, 2
8,46551773.5319154,7056.14998967995, 1, 9,15,23520.4999655998, 1, 1,15
9,27977181.3232381,4240.68027332831, 1, 9,15,14135.6009110944, 1, 1,15
71,31204464.0667499,0.0, 1, 1,15,42054.5337826817, 1,20,15
93,18753591.604655,0.0, 1, 1,15,25274.3822165161, 1,20,15
125,37776986.917929,6007.7905403831, 1, 1,15,30038.9527019155, 1,19,15
137,22703616.4824934,3610.62603093087, 1, 1,15,18053.1301546544, 1,19,15
138,647222936.200435,0.0, 1, 1,15,1677928.50735064, 9,16,30
139,0.0,0.0, 1, 1,15,0.0, 1, 1,15
140,22.845331211558,17.5098985547294, 4, 7,30,35.7866465071759,24,17,60
141,22.3710777647058,19.5752425397758, 4, 8,60,27.9539155625554,24,23,60
142,22.8602290580547,19.9999999999998,11, 6,60,35.7943602271924,24,17,60
143,22.8527801348063,18.7549492773647, 4, 7,30,35.7905033671841,24,17,60
144,21.9613631779512,19.9999999999999,11, 9,45,27.5507150663558,24,22,60
145,22.1662204713285,19.7876212698879, 4, 8,60,27.7358897323981,24,23,60
146,193523332.685402,10534.3466340635,23,14,33,106684.987527107, 7,17,45
147,0.0,0.0, 1, 1,15,0.0, 1, 1,15
148,0.378197964030756,0.363864797077,23,13,22,0.393449954798766, 7,17,52
149,111261281.999453,5055.24651947402,23,15,48,61534.8302960121, 8, 3,60
150,0.0,0.0, 1, 1,15,0.0, 1, 1,15
151,0.377078636245191,0.362006249784907,23,15,60,0.390573079564078, 8, 4,60
224,22.8602290580547,19.9999999999998,11, 6,60,35.7943602271924,24,17,60
225,17.2059683508189,4.02214162719635, 9,17,30,38.1752235956974, 7, 4,15
258,21.9613631779512,19.9999999999999,11, 9,45,27.5507150663558,24,22,60
259,17.2008052840103,5.89605387198933, 9,17,60,38.4279027186776, 3,21,60
260,155582304.912885,0.0, 1,14,15,306673.189165669, 4, 7,30
291,0.0,0.0, 1, 1,15,0.0, 1, 1,15
322,155582304.912888,0.0, 1,14,15,306673.18916568, 4, 7,30
323,12337777.8144179,0.0, 1, 1,15,49498.4638520202,11, 8,60
324,0.0,0.0, 1, 1,15,0.0, 1, 1,15
325,12337779.5465016,0.0, 1, 1,15,49498.463852023,11, 8,60
408,93314129.0819578,0.0, 1, 1,15,166632.373360639, 1, 7,15
461,56080920.4735485,0.0, 1, 1,15,100144.500845622, 1, 7,15
4,90, 3
8,51378180.1248566,7056.14998967995, 1, 9,15,23520.4999655998, 1, 1,15
9,30877806.6301947,4240.68027332831, 1, 9,15,14135.6009110944, 1, 1,15
71,34673963.1038211,0.0, 1, 1,15,42054.5337826817, 1,20,15
93,20838728.1375175,0.0, 1, 1,15,25274.3822165161, 1,20,15
125,41886315.647551,6007.7905403831, 1, 1,15,30038.9527019155, 1,19,15
137,25173284.6876501,3610.62603093087, 1, 1,15,18053.1301546544, 1,19,15
138,819555932.365479,0.0, 1, 1,15,1721298.83003521,15,16,30
139,0.0,0.0, 1, 1,15,0.0, 1, 1,15
140,26.7231629693287,18.8852617180862, 9, 7,45,40.5478498235875,19,18,15
141,26.1871715417928,21.088835990798, 9,13,45,32.2344106688373,19,24,15
142,26.152807160839,19.9999999999999, 2, 7,15,40.4916536341892,19,17,60
143,26.4379850650839,19.4426308590431, 9, 7,45,40.5180959377218,19,18,15
144,25.737364775813,20.6888447654092, 9,12,45,31.913012932885,19,23,60
145,25.9622681588029,20.8908988243213, 9,13,45,32.0713675810208,19,23,60
146,198206847.835574,9924.71026132953,11,14,33,95923.7434228269, 6,18,15
147,0.0,0.0, 1, 1,15,0.0, 1, 1,15
148,0.375019138909926,0.3611535364067,30,12,60,0.389786224608834, 6,17,60
149,116826540.516467,4588.73815316793,11,15,48,59735.28681055, 6, 3,60
150,0.0,0.0, 1, 1,15,0.0, 1, 1,15
151,0.374535048226487,0.359425019783881,30,15,60,0.387248045369097, 8, 3,60
224,26.152807160839,19.9999999999999, 2, 7,15,40.4916536341892,19,17,60
225,19.4863684810371,4.89418484650731, 7,17,30,35.8806460478716,29, 6,60
258,25.737364775813,20.6888447654092, 9,12,45,31.913012932885,19,23,60
259,19.1684167379,7.41535023603582, 7,17,60,31.239990138313,29, 7,60
260,12694440.0979921,0.0, 1, 1,15,150135.373375813, 9, 6,60
291,0.0,0.0, 1, 1,15,0.0, 1, 1,15
322,12694440.0979924,0.0, 1, 1,15,150135.373375813, 9, 6,60
323,0.0,0.0, 1, 1,15,0.0, 1, 1,15
324,0.0,0.0, 1, 1,15,0.0, 1, 1,15
325,0.0,0.0, 1, 1,15,0.0, 1, 1,15
408,103312071.483596,0.0, 1, 1,15,166632.373360639, 1, 7,15
461,62089590.5242858,0.0, 1, 1,15,100144.500845622, 1, 7,15
4,120, 4
8,50145705.9266591,7056.14998967995, 1,15,15,23520.4999655998, 1, 1,15
9,30137101.1424533,4240.68027332831, 1,15,15,14135.6009110944, 1, 1,15
71,33223081.6883186,0.0, 1, 1,15,42054.5337826817, 1,19,15
93,19966761.9510477,0.0, 1, 1,15,25274.3822165161, 1,19,15
125,40372352.4313744,6007.7905403831, 1, 1,15,30038.9527019155, 1,19,15
137,24263406.9278555,3610.62603093087, 1, 1,15,18053.1301546544, 1,19,15
138,743563163.502017,0.0, 1, 1,15,1663358.66049345, 2,16,30
139,0.0,0.0, 1, 1,15,0.0, 1, 1,15
140,30.3746902191771,19.805311758004,26, 7,15,46.7060189940672,10,18,30
141,29.7857964957901,22.2141374803713,27,11,45,38.2616963561091,10,23,45
142,29.838654303005,20.,26, 6,60,46.8124037526529,10,18,30
143,30.106672261091,19.902655879002,26, 7,15,46.75921137336,10,18,30
144,29.4166891636205,21.9483546079489,27,11,30,37.8845386098034,10,21,60
145,29.6012428297053,22.0823293175488,27,11,30,38.0534194700369,10,22,60
146,173238302.785801,9722.49206564026,27,14,35,100153.922010982,11,22,60
147,0.0,0.0, 1, 1,15,0.0, 1, 1,15
148,0.371122296674243,0.358662152207064,19,12,60,0.383286644627542, 2,18,52
149,102404879.412611,3639.56535088961, 8,15,48,59789.6925120906,13, 2,60
150,0.0,0.0, 1, 1,15,0.0, 1, 1,15
151,0.37064085356899,0.357587687266244,27,15,60,0.379445754714618,11, 6,60
224,29.838654303005,20.,26, 6,60,46.8124037526529,10,18,30
225,26.120938508594,7.99147670564097,18,17,37,55.0468549196708,25, 3,60
258,29.4166891636205,21.9483546079489,27,11,30,37.8888209151654,10,21,60
259,25.7239530041954,12.0042908831992,11,17,15,48.4925963393091,25, 2,15
260,663517.274380722,0.0, 1, 1,15,58546.7566640798,26, 6,60
291,0.0,0.0, 1, 1,15,0.0, 1, 1,15
322,663517.274380743,0.0, 1, 1,15,58546.7566640824,26, 6,60
323,0.0,0.0, 1, 1,15,0.0, 1, 1,15
324,0.0,0.0, 1, 1,15,0.0, 1, 1,15
325,0.0,0.0, 1, 1,15,0.0, 1, 1,15
408,99979424.0163833,0.0, 1, 1,15,166632.373360639, 1, 6,15
461,60086700.5073734,0.0, 1, 1,15,100144.500845622, 1, 6,15
4,151, 5
8,51378180.1248566,7056.14998967995, 1, 8,15,23520.4999655998, 1, 1,15
9,30877806.6301947,4240.68027332831, 1, 8,15,14135.6009110944, 1, 1,15
71,34673963.1038211,0.0, 1, 1,15,42054.5337826817, 1,19,15
93,20838728.1375175,0.0, 1, 1,15,25274.3822165161, 1,19,15
125,41886315.6475509,6007.7905403831, 1, 1,15,30038.9527019155, 1,18,15
137,25173284.6876501,3610.62603093087, 1, 1,15,18053.1301546544, 1,18,15
138,752273592.957422,0.0, 1, 1,15,1439277.93169695, 5,16,45
139,0.0,0.0, 1, 1,15,0.0, 1, 1,15
140,34.7156127505881,24.0606997696095,30, 6,60,49.0507943394992,25,18,45
141,34.1698728319265,26.6173374906685,30,10,45,41.9871911221759,25,24,15
142,34.2014287111104,23.7780107158258,30, 6,60,49.1502162867873,25,18,45
143,34.4585207308493,23.9193552427177,30, 6,60,49.1005053131433,25,18,45
144,33.821290423224,26.4765432983168,30, 9,45,41.7738653627587,25,22,60
145,33.9955816275753,26.5497017915284,30,11,30,41.8481584639257,25,22,60
146,174511075.253454,8830.98045656408,31,14,50,101499.615666703, 8, 1,60
147,0.0,0.0, 1, 1,15,0.0, 1, 1,15
148,0.36933433734764,0.355683394701428,30,13,30,0.378871115764315,17,21,52
149,103801353.646058,2422.05930940538,31,15,50,62109.8786969584,17, 5,60
150,0.0,0.0, 1, 1,15,0.0, 1, 1,15
151,0.368908395059137,0.352969498409636,30,15,60,0.379667982006532, 6, 6,60
224,34.2014287111104,23.7780107158258,30, 6,60,49.1502162867873,25,18,45
225,29.6853799947297,9.07395330036781, 8,17,52,58.4682210503423,29, 4,30
258,33.821290423224,26.4765432983168,30, 9,45,41.7738653627587,25,22,60
259,29.2736249033565,14.694382382229, 8,17, 5,51.1535195371978,28,15,30
260,0.0,0.0, 1, 1,15,0.0, 1, 1,15
291,0.0,0.0, 1, 1,15,0.0, 1, 1,15
322,0.0,0.0, 1, 1,15,0.0, 1, 1,15
323,0.0,0.0, 1, 1,15,0.0, 1, 1,15
324,0.0,0.0, 1, 1,15,0.0, 1, 1,15
325,0.0,0.0, 1, 1,15,0.0, 1, 1,15
408,103312071.483596,0.0, 1, 1,15,166632.373360639, 1, 6,15
461,62089590.5242858,0.0, 1, 1,15,100144.500845622, 1, 6,15
4,181, 6
8,49769377.9272095,7056.14998967995, 1, 8,15,23520.4999655998, 1, 1,15
9,29910931.5278758,4240.68027332831, 1, 8,15,14135.6009110944, 1, 1,15
71,33517463.4247974,0.0, 1, 1,15,42054.5337826817, 1,19,15
93,20143682.6265634,0.0, 1, 1,15,25274.3822165161, 1,19,15
125,40516539.4043437,6007.7905403831, 1, 1,15,30038.9527019155, 1,18,15
137,24350061.9525979,3610.62603093087, 1, 1,15,18053.1301546544, 1,18,15
138,722974896.492824,0.0, 1, 1,15,1371616.27929381, 1,16,45
139,0.0,0.0, 1, 1,15,0.0, 1, 1,15
140,39.692076159167,30.8251790592679,15, 7,15,52.0622077384905, 9,18,60
141,39.0322206239563,32.7796873444709,15,11,30,44.9947933272448,10,22,60
142,39.1798500125111,30.4827999017757,15, 6,60,52.0530871264279, 9,18,60
143,39.435963085839,30.6552649325197,15, 6,60,52.0576474324592, 9,18,60
144,38.6812869419189,32.5981619730203,15,11,30,44.7272529610579,10,20,60
145,38.8567537829377,32.6889246587456,15,11,30,44.8426964978117,10,22,60
146,170935220.050904,8648.77535004747, 1,15,50,83957.5682434009, 1, 4,30
147,0.0,0.0, 1, 1,15,0.0, 1, 1,15
148,0.368713289805707,0.357264536419722,15,13,30,0.377961859889517,22,20, 7
149,100834734.117495,2357.71893198678, 1,15,50,52860.4164517993, 1, 4,60
150,0.0,0.0, 1, 1,15,0.0, 1, 1,15
151,0.368147762220362,0.355171747494501,15,15,60,0.379019269320607,12, 3,37
224,39.1798500125111,30.4827999017757,15, 6,60,52.0530871264279, 9,18,60
225,31.2780691178715,10.0491509173664, 8,17,37,59.248171393311,15, 6,60
258,38.6812869419189,32.5981619730203,15,11,30,44.7272529610579,10,20,60
259,31.2682291139949,15.195875864312, 8,16,60,53.1376405681955,14, 5,60
260,0.0,0.0, 1, 1,15,0.0, 1, 1,15
291,0.0,0.0, 1, 1,15,0.0, 1, 1,15
322,0.0,0.0, 1, 1,15,0.0, 1, 1,15
323,0.0,0.0, 1, 1,15,0.0, 1, 1,15
324,0.0,0.0, 1, 1,15,0.0, 1, 1,15
325,0.0,0.0, 1, 1,15,0.0, 1, 1,15
408,99979424.0163833,0.0, 1, 1,15,166632.373360639, 1, 6,15
461,60086700.5073734,0.0, 1, 1,15,100144.500845622, 1, 6,15
4,212, 7
8,51754508.1243062,7056.14998967995, 1,15,15,23520.4999655998, 1, 1,15
9,31103976.2447722,4240.68027332831, 1,15,15,14135.6009110944, 1, 1,15
71,34379581.3673424,0.0, 1, 1,15,42054.5337826817, 1,19,15
93,20661807.4620019,0.0, 1, 1,15,25274.3822165161, 1,19,15
125,41742128.6745817,6007.7905403831, 1, 1,15,30038.9527019155, 1,19,15
137,25086629.6629078,3610.62603093087, 1, 1,15,18053.1301546544, 1,19,15
138,601940841.441045,0.0, 1, 1,15,1225545.30770423, 6,16,45
139,0.0,0.0, 1, 1,15,0.0, 1, 1,15
140,27.5715605722467,24.3406664899722,18, 2,15,37.4216337984976, 1,14,15
141,26.1490861198883,24.5855885420202,17,22,15,37.4234097823332, 1, 1,15
142,26.0937519167308,23.9449783645269, 3,14,15,36.8238803817487, 1,13,60
143,26.8326562444888,24.2020287139553,17,21,60,36.9667778479053, 1,13,60
144,25.6419163913739,23.9524622763652,17,14,15,36.9339921205171, 1, 1,15
145,25.8955012556311,24.2968496207078,17,21,60,37.1787009514251, 1, 1,15
146,27431016.6015077,0.0, 1,14, 2,55879.7868646571, 1, 1,15
147,23718406.0637464,0.0, 1, 1,15,51772.4596985089,30,14,30
148,0.350620629478028,0.34119770344458,20,15,60,0.364833198383467, 1, 1,15
149,14322594.2319732,0.0, 1,14, 2,36804.7942895196, 1, 3,60
150,14129776.0959784,0.0, 1, 1,15,30274.9771899492,30,14,45
151,0.350092607535247,0.341189516868786,20,15,60,0.366805182707811, 1, 1,15
224,26.0937519167308,23.3894384359422,23,14, 5,36.8238803817487, 1,13,60
225,70.9721476622265,43.1308684114834, 1,13,60,89.744165174414, 2,14, 3
258,25.6419163913739,23.4504740375309, 1,14, 3,36.9339921205171, 1, 1,15
259,72.9032511658912,43.3008291014454, 1, 1,15,89.4587708149699, 2,14, 3
260,0.0,0.0, 1, 1,15,0.0, 1, 1,15
291,611851681.428091,0.0, 1, 1,15,1825075.04525269, 1,14,45
322,5.986341022889974E-006,0.0, 1, 1,15,1.598209564690478E-007, 1,14,60
323,0.0,0.0, 1, 1,15,0.0, 1, 1,15
324,162517028.033817,0.0, 1, 1,15,1099334.14325213, 1,14,45
325,1.039740027408698E-006,0.0, 1, 1,15,5.954916559858248E-008, 1,15,30
408,103312071.483596,0.0, 1, 1,15,166632.373360639, 1, 6,15
461,62089590.5242858,0.0, 1, 1,15,100144.500845622, 1, 6,15
4,243, 8
8,51378180.1248566,7056.14998967995, 1, 8,15,23520.4999655998, 1, 1,15
9,30877806.6301947,4240.68027332831, 1, 8,15,14135.6009110944, 1, 1,15
71,34673963.1038211,0.0, 1, 1,15,42054.5337826817, 1,19,15
93,20838728.1375175,0.0, 1, 1,15,25274.3822165161, 1,19,15
125,41886315.6475509,6007.7905403831, 1, 1,15,30038.9527019155, 1,18,15
137,25173284.6876501,3610.62603093087, 1, 1,15,18053.1301546544, 1,18,15
138,710337424.355049,0.0, 1, 1,15,1462338.80764436,30,16,30
139,0.0,0.0, 1, 1,15,0.0, 1, 1,15
140,27.7933965169851,23.3231736974453,26, 6,60,32.4651015161689,30,17,30
141,26.0512916682731,24.5041001972078,26, 8,15,28.0537748935687, 7,14,15
142,26.1065809191228,23.1302216971893,26, 6,60,31.9507159853012, 7,13,60
143,26.949988718054,23.2266976973173,26, 6,60,31.928774844087, 7,13,60
144,25.5301260654909,23.9527476269306,25,14,15,28.2854004626345, 7,13,60
145,25.790708866882,24.3979985368134,25,21,60,28.1312100508693, 7,13,60
146,27632768.4621147,0.0, 1,14, 1,32974.3316203942,28, 6,60
147,25194448.6190168,0.0, 1, 1,15,53341.3409588845, 7,15,60
148,0.350067765750097,0.338787442790498, 7,15,60,0.357607748890475,28, 6,60
149,13946807.8592958,0.0, 1,13,15,20826.865484476,28, 6,60
150,15174523.2097055,0.0, 1, 1,15,31353.9251556798, 7,15,60
151,0.349396530916153,0.338773187167342, 7,15,60,0.358379959297465,28, 6,60
224,26.1065809191228,23.1302216971893,26, 6,60,32.061377915256, 7,13,60
225,69.6729042083401,43.8517696742644,30,13,60,90.1494380600356, 2, 5,60
258,25.5301260654909,23.5597039388766, 9,14, 3,28.3105030125518, 7,13,60
259,72.0421262731944,53.725096515046,30,13,60,91.6260915376129, 2, 5,60
260,0.0,0.0, 1, 1,15,0.0, 1, 1,15
291,706480895.01457,0.0, 1, 1,15,1239408.30622334,30,17,30
322,8.873966481783699E-006,0.0, 1, 1,15,1.504076863056980E-007,31,14,45
323,0.0,0.0, 1, 1,15,0.0, 1, 1,15
324,165245067.156683,0.0, 1, 1,15,322895.093538668, 7,14, 1
325,1.098975718730219E-006,0.0, 1, 1,15,2.941646926046815E-008, 7,14,45
408,103312071.483596,0.0, 1, 1,15,166632.373360639, 1, 6,15
461,62089590.5242858,0.0, 1, 1,15,100144.500845622, 1, 6,15
4,273, 9
8,49957541.9269343,7056.14998967995, 1, 8,15,23520.4999655998, 1, 1,15
9,30024016.3351646,4240.68027332831, 1, 8,15,14135.6009110944, 1, 1,15
71,33370272.556558,0.0, 1, 1,15,42054.5337826817, 1,19,15
93,20055222.2888055,0.0, 1, 1,15,25274.3822165161, 1,19,15
125,40444445.9178591,6007.7905403831, 1, 1,15,30038.9527019155, 1,18,15
137,24306734.4402267,3610.62603093087, 1, 1,15,18053.1301546544, 1,18,15
138,682827284.600126,0.0, 1, 1,15,1619961.32958418,22,16,30
139,0.0,0.0, 1, 1,15,0.0, 1, 1,15
140,26.6189976177656,22.6141485852993,30, 7,30,32.5805220991959,23,16,60
141,25.4474037171494,24.041969408768,30, 8,60,26.8436871711185, 1,14,15
142,25.0352118490331,22.373433518035,30, 7,30,30.5763279453342, 7,13,60
143,25.8271047333994,22.4937910516672,30, 7,30,30.5632934042508, 7,13,60
144,24.9895819154532,23.9394133513,30, 7,60,27.0250548852606, 7,13,60
145,25.2184928163013,24.003291377297,30, 7,60,26.8961293872354, 7,13,60
146,47973605.3822417,0.0, 1,14, 1,49517.2005668543,15,24,60
147,3078358.71081306,0.0, 1, 1,15,25998.4678393134,20,18,60
148,0.353705950309894,0.342224252846828, 6,15,60,0.361943748630483,30,24,60
149,28355959.4279577,0.0, 1,14, 1,29473.5176432806,15,24,60
150,1781924.95290423,0.0, 1, 1,15,17072.7551719949,20,18,60
151,0.353658610754027,0.342231117019284, 6,15,60,0.362667117667493,30,24,60
224,25.0352118490331,22.373433518035,30, 7,30,30.6876770522859, 7,13,60
225,61.2446132439425,31.8788401705776,16,13,60,84.2786134811889, 9, 6,60
258,24.9895819154532,23.5506186636782, 1,14, 3,27.0394329919313, 7,13,60
259,61.185848938665,36.8688399024798,16,22,30,82.7122446312477, 9, 6,60
260,0.0,0.0, 1, 1,15,0.0, 1, 1,15
291,569421195.369665,0.0, 1, 1,15,1256469.41512087, 6,17,15
322,1.198932764151311E-005,0.0, 1, 1,15,1.432454155292362E-007, 6,15,15
323,0.0,0.0, 1, 1,15,0.0, 1, 1,15
324,105603062.341588,0.0, 1, 1,15,217129.509366162, 7,14,45
325,2.026445826961168E-006,0.0, 1, 1,15,2.826539002853679E-008, 9,14,45
408,99979424.0163833,0.0, 1, 1,15,166632.373360639, 1, 6,15
461,60086700.5073734,0.0, 1, 1,15,100144.500845622, 1, 6,15
4,304,10
8,51566344.1245814,7056.14998967995, 1,15,15,23520.4999655998, 1, 1,15
9,30990891.4374834,4240.68027332831, 1,15,15,14135.6009110944, 1, 1,15
71,34526772.2355817,0.0, 1, 1,15,42054.5337826817, 1,19,15
93,20750267.7997597,0.0, 1, 1,15,25274.3822165161, 1,19,15
125,41814222.1610663,6007.7905403831, 1, 1,15,30038.9527019155, 1,19,15
137,25129957.1752789,3610.62603093087, 1, 1,15,18053.1301546544, 1,19,15
138,676879463.264598,0.0, 1, 1,15,1574250.02425094,15,15,60
139,0.0,0.0, 1, 1,15,0.0, 1, 1,15
140,31.5226969131758,21.4705987086919,24, 7,30,44.5052673357204, 9,17,60
141,31.0591495320384,24.0534507987858, 1, 9,15,37.3162661787972, 9,23,15
142,31.0584199049561,20.9138976075956,24, 7,30,44.370854810561, 9,17,45
143,31.2905584090659,21.1922481581438,24, 7,30,44.4269828202247, 9,17,45
144,30.7406831858917,23.8601273757452, 1, 7,60,37.0080984382966, 9,21,60
145,30.8999163589651,23.9865622891137, 1, 7,60,37.1417714839808, 9,22,60
146,166962824.281104,7849.90938363685, 1,13,35,100922.434084206,15,24,60
147,0.0,0.0, 1, 1,15,0.0, 1, 1,15
148,0.368755271670682,0.356396643573568, 2,12,60,0.382954541786508,18,17,52
149,99253249.7294024,3949.0242783042, 2,16,35,61586.5261737248,15,24,60
150,0.0,0.0, 1, 1,15,0.0, 1, 1,15
151,0.368398077569715,0.355441444430055, 1,15,15,0.381044240182634,19, 3,22
224,31.0584199049561,20.9138976075956,24, 7,30,44.370854810561, 9,17,45
225,30.7982045650994,8.26651933245987,16,17,15,58.8108813851263,28,24,30
258,30.7406831858917,23.8601273757452, 1, 7,60,37.0080984382966, 9,21,60
259,30.5467588159847,13.1913733824649,19,16,37,51.5115062160208,28,24,30
260,0.0,0.0, 1, 1,15,0.0, 1, 1,15
291,0.0,0.0, 1, 1,15,0.0, 1, 1,15
322,0.0,0.0, 1, 1,15,0.0, 1, 1,15
323,0.0,0.0, 1, 1,15,0.0, 1, 1,15
324,0.0,0.0, 1, 1,15,0.0, 1, 1,15
325,0.0,0.0, 1, 1,15,0.0, 1, 1,15
408,103312071.483596,0.0, 1, 1,15,166632.373360639, 1, 6,15
461,62089590.5242858,0.0, 1, 1,15,100144.500845622, 1, 6,15
4,334,11
8,49769377.9272095,7056.14998967995, 1, 9,15,23520.4999655998, 1, 1,15
9,29910931.5278758,4240.68027332831, 1, 9,15,14135.6009110944, 1, 1,15
71,33517463.4247974,0.0, 1, 1,15,42054.5337826817, 1,20,15
93,20143682.6265634,0.0, 1, 1,15,25274.3822165161, 1,20,15
125,40516539.4043437,6007.7905403831, 1, 1,15,30038.9527019155, 1,19,15
137,24350061.9525979,3610.62603093087, 1, 1,15,18053.1301546544, 1,19,15
138,544163857.446358,0.0, 1, 1,15,1402641.97436098, 6,15,30
139,0.0,0.0, 1, 1,15,0.0, 1, 1,15
140,24.0157413028932,17.6669806751119,27, 8,15,36.7727512512881, 6,17,15
141,24.0457137606258,19.8682120441308,27,11,15,30.3570590969776, 6,23,60
142,23.8642814364888,19.9999999999998,27, 3,30,36.8786966191196, 6,16,60
143,23.940011369691,18.8334903375559,27, 8,15,36.8144376609565, 6,17,15
144,23.7520286850453,20.,27, 5,15,30.2763969170422, 7,22,60
145,23.8988712228356,19.9341060220654,27,11,15,30.2644728442037, 7,22,60
146,152718364.564356,8773.4754449627,14,12,52,80168.9332590181,22,17,15
147,0.0,0.0, 1, 1,15,0.0, 1, 1,15
148,0.369719875699856,0.358187587110275,14,12,52,0.382739538059027,22,17,52
149,91401864.9783439,3387.59377709909,13,14,50,50686.5422865766,23, 7,60
150,0.0,0.0, 1, 1,15,0.0, 1, 1,15
151,0.369602782826292,0.357489813044389,14,13,60,0.382261116218891,23, 7,60
224,23.8642814364888,19.9999999999998,27, 3,30,36.8786966191196, 6,16,60
225,31.0150183905197,11.2341957575612,27,16,60,59.3803179499838,19, 8,60
258,23.7520286850453,20.,27, 5,15,30.2763969170422, 7,22,60
259,30.7013721180886,15.069225731748,23,13,15,54.0344652379856,19,12,45
260,76143536.5479877,0.0, 1, 1,15,274005.769723098,27, 6,60
291,0.0,0.0, 1, 1,15,0.0, 1, 1,15
322,76143536.5479894,0.0, 1, 1,15,274005.769723098,27, 6,60
323,2352005.52986825,0.0, 1, 1,15,28758.7151591405,27,10,15
324,0.0,0.0, 1, 1,15,0.0, 1, 1,15
325,2352008.80125698,0.0, 1, 1,15,28758.7151591418,27,10,15
408,99979424.0163833,0.0, 1, 1,15,166632.373360639, 1, 7,15
461,60086700.5073734,0.0, 1, 1,15,100144.500845622, 1, 7,15
4,365,12
8,51754508.1243062,7056.14998967995, 1, 9,15,23520.4999655998, 1, 1,15
9,31103976.2447722,4240.68027332831, 1, 9,15,14135.6009110944, 1, 1,15
71,34379581.3673424,0.0, 1, 1,15,42054.5337826817, 1,20,15
93,20661807.4620019,0.0, 1, 1,15,25274.3822165161, 1,20,15
125,41742128.6745818,6007.7905403831, 1, 1,15,30038.9527019155, 1,19,15
137,25086629.6629078,3610.62603093087, 1, 1,15,18053.1301546544, 1,19,15
138,581913350.84476,0.0, 1, 1,15,1446825.53763913,31,15,30
139,0.0,0.0, 1, 1,15,0.0, 1, 1,15
140,20.9660639205547,17.2758138020682,31, 6,60,28.5326982295814,27,17,15
141,20.9060512816383,19.569175119683,31, 9,30,23.1086776415626,29,23,60
142,21.3397240615259,19.9999999999998,17, 6,15,28.5002618905653,27,16,60
143,21.1528939910403,18.6379069010341,31, 6,60,28.4989915631042,27,16,60
144,20.5733871669723,19.9999999999999,17, 8,15,22.965125047559,29,22,60
145,20.7397192243053,19.7845875598415,31, 9,30,23.005659020116,29,22,60
146,208735501.011958,13209.1515940059,29,14,50,113795.983387152,31,16,60
147,0.0,0.0, 1, 1,15,0.0, 1, 1,15
148,0.377690307590352,0.363730837810459,29,13,15,0.397092623107769,31,17,22
149,120714808.402813,6836.46130622105,29,15,60,66258.1528663272,31, 9,60
150,0.0,0.0, 1, 1,15,0.0, 1, 1,15
151,0.37672246493683,0.362420691150604,29,15,60,0.394119712934642,31,24,60
224,21.3397240615259,19.9999999999998,17, 6,15,28.5002618905653,27,16,60
225,19.6658615404481,5.69862503585764,15,16,45,40.4132214218281,25, 4,30
258,20.5733871669723,19.9999999999999,17, 8,15,22.965125047559,29,22,60
259,19.8878364235644,7.22629774599481,16,19,45,40.9666625344705,25, 4,15
260,257812134.432217,0.0, 1,13,37,366692.738943375,31, 6,60
291,0.0,0.0, 1, 1,15,0.0, 1, 1,15
322,257812134.432222,0.0, 1,13,37,366692.738943376,31, 6,60
323,24568149.5038005,0.0, 1, 1,15,61285.0771081169,31, 6,60
324,0.0,0.0, 1, 1,15,0.0, 1, 1,15
325,24568152.0154245,0.0, 1, 1,15,61285.0771081199,31, 6,60
408,103312071.483596,0.0, 1, 1,15,166632.373360639, 1, 7,15
461,62089590.5242858,0.0, 1, 1,15,100144.500845622, 1, 7,15
End of Data
 Number of Records Written=         384
