Program Version,EnergyPlus, Version 8.4.0-09f5359d8a, YMD=2023.08.02 14:39
1,5,Environment Title[],Latitude[deg],Longitude[deg],Time Zone[],Elevation[m]
2,6,Day of Simulation[],Month[],Day of Month[],DST Indicator[1=yes 0=no],Hour[],StartMinute[],EndMinute[],DayType
3,3,Cumulative Day of Simulation[],Month[],Day of Month[],DST Indicator[1=yes 0=no],DayType  ! When Daily Report Variables Requested
4,2,Cumulative Days of Simulation[],Month[]  ! When Monthly Report Variables Requested
5,1,Cumulative Days of Simulation[] ! When Run Period Report Variables Requested
8,9,PERIM,Zone People Total Heating Energy [J] !Monthly  [Value,Min,Day,Hour,Minute,Max,Day,Hour,Minute]
9,9,CORE,Zone People Total Heating Energy [J] !Monthly  [Value,Min,Day,Hour,Minute,Max,Day,Hour,Minute]
71,9,PERIM,Zone Lights Electric Energy [J] !Monthly  [Value,Min,Day,Hour,Minute,Max,Day,Hour,Minute]
93,9,CORE,Zone Lights Electric Energy [J] !Monthly  [Value,Min,Day,Hour,Minute,Max,Day,Hour,Minute]
125,9,PERIM,Zone Electric Equipment Electric Energy [J] !Monthly  [Value,Min,Day,Hour,Minute,Max,Day,Hour,Minute]
137,9,CORE,Zone Electric Equipment Electric Energy [J] !Monthly  [Value,Min,Day,Hour,Minute,Max,Day,Hour,Minute]
138,9,PERIM,Zone Windows Total Transmitted Solar Radiation Energy [J] !Monthly  [Value,Min,Day,Hour,Minute,Max,Day,Hour,Minute]
139,9,CORE,Zone Windows Total Transmitted Solar Radiation Energy [J] !Monthly  [Value,Min,Day,Hour,Minute,Max,Day,Hour,Minute]
140,9,PERIM,Zone Mean Radiant Temperature [C] !Monthly [Value,Min,Day,Hour,Minute,Max,Day,Hour,Minute]
141,9,CORE,Zone Mean Radiant Temperature [C] !Monthly [Value,Min,Day,Hour,Minute,Max,Day,Hour,Minute]
142,9,PERIM,Zone Mean Air Temperature [C] !Monthly [Value,Min,Day,Hour,Minute,Max,Day,Hour,Minute]
143,9,PERIM,Zone Operative Temperature [C] !Monthly [Value,Min,Day,Hour,Minute,Max,Day,Hour,Minute]
144,9,CORE,Zone Mean Air Temperature [C] !Monthly [Value,Min,Day,Hour,Minute,Max,Day,Hour,Minute]
145,9,CORE,Zone Operative Temperature [C] !Monthly [Value,Min,Day,Hour,Minute,Max,Day,Hour,Minute]
146,9,PERIM,Zone Infiltration Total Heat Loss Energy [J] !Monthly  [Value,Min,Day,Hour,Minute,Max,Day,Hour,Minute]
147,9,PERIM,Zone Infiltration Total Heat Gain Energy [J] !Monthly  [Value,Min,Day,Hour,Minute,Max,Day,Hour,Minute]
148,9,PERIM,Zone Infiltration Air Change Rate [ach] !Monthly [Value,Min,Day,Hour,Minute,Max,Day,Hour,Minute]
149,9,CORE,Zone Infiltration Total Heat Loss Energy [J] !Monthly  [Value,Min,Day,Hour,Minute,Max,Day,Hour,Minute]
150,9,CORE,Zone Infiltration Total Heat Gain Energy [J] !Monthly  [Value,Min,Day,Hour,Minute,Max,Day,Hour,Minute]
151,9,CORE,Zone Infiltration Air Change Rate [ach] !Monthly [Value,Min,Day,Hour,Minute,Max,Day,Hour,Minute]
224,9,PERIM,Zone Air Temperature [C] !Monthly [Value,Min,Day,Hour,Minute,Max,Day,Hour,Minute]
225,9,PERIM,Zone Air Relative Humidity [%] !Monthly [Value,Min,Day,Hour,Minute,Max,Day,Hour,Minute]
258,9,CORE,Zone Air Temperature [C] !Monthly [Value,Min,Day,Hour,Minute,Max,Day,Hour,Minute]
259,9,CORE,Zone Air Relative Humidity [%] !Monthly [Value,Min,Day,Hour,Minute,Max,Day,Hour,Minute]
260,9,PERIM IDEAL LOADS AIR,Zone Ideal Loads Supply Air Total Heating Energy [J] !Monthly  [Value,Min,Day,Hour,Minute,Max,Day,Hour,Minute]
291,9,PERIM IDEAL LOADS AIR,Zone Ideal Loads Supply Air Total Cooling Energy [J] !Monthly  [Value,Min,Day,Hour,Minute,Max,Day,Hour,Minute]
322,9,PERIM IDEAL LOADS AIR,Zone Ideal Loads Zone Total Heating Energy [J] !Monthly  [Value,Min,Day,Hour,Minute,Max,Day,Hour,Minute]
323,9,CORE IDEAL LOADS AIR,Zone Ideal Loads Supply Air Total Heating Energy [J] !Monthly  [Value,Min,Day,Hour,Minute,Max,Day,Hour,Minute]
324,9,CORE IDEAL LOADS AIR,Zone Ideal Loads Supply Air Total Cooling Energy [J] !Monthly  [Value,Min,Day,Hour,Minute,Max,Day,Hour,Minute]
325,9,CORE IDEAL LOADS AIR,Zone Ideal Loads Zone Total Heating Energy [J] !Monthly  [Value,Min,Day,Hour,Minute,Max,Day,Hour,Minute]
408,9,DHW PERIM,Water Use Equipment Heating Energy [J] !Monthly  [Value,Min,Day,Hour,Minute,Max,Day,Hour,Minute]
461,9,DHW CORE,Water Use Equipment Heating Energy [J] !Monthly  [Value,Min,Day,Hour,Minute,Max,Day,Hour,Minute]
End of Data Dictionary
1,ARCHSIM,  37.57, 126.97,   9.00,  87.10
4,31, 1
8,51566344.1223819,7056.14998937907, 1,16,15,23520.4999645969, 1, 1,15
9,30990891.4397175,4240.68027363397, 1,16,15,14135.6009121132, 1, 1,15
71,34526772.2341093,0.0, 1, 1,15,42054.5337808885, 1,20,15
93,20750267.8012554,0.0, 1, 1,15,25274.3822183378, 1,20,15
125,41814222.1592836,6007.79054012692, 1, 1,15,30038.9527006346, 1,20,15
137,25129957.17709,3610.62603119112, 1, 1,15,18053.1301559556, 1,20,15
138,473050104.586338,0.0, 1, 1,15,1404464.58165371,30,16,30
139,0.0,0.0, 1, 1,15,0.0, 1, 1,15
140,19.9027131277926,17.1934675304262,22, 8,45,26.9065570764471,30,17,45
141,20.3146174002837,19.4680709884854,22, 8,60,21.8871410078187, 6,23,60
142,20.6889219410815,19.9999999999998,15, 8,30,26.5901567502889,30,17,30
143,20.295817534437,18.5967337652131,22, 8,45,26.7394425330645,30,17,45
144,20.1742433402775,19.9999999999999,15, 8,30,21.7439120879743, 6,22,60
145,20.2444303702806,19.7340354942427,22, 8,60,21.7912763155815, 6,22,60
146,220874423.79587,11144.7037005165, 6,14,35,109696.005752069,23, 6,60
147,0.0,0.0, 1, 1,15,0.0, 1, 1,15
148,0.379640845636534,0.362585888358247, 8,12,60,0.394168058057832,23, 6,60
149,129437652.670294,5153.48405742238, 6,15,50,65966.6734843042,23, 6,60
150,0.0,0.0, 1, 1,15,0.0, 1, 1,15
151,0.378986412492554,0.361617196211648, 6,15,60,0.394167229521097,23, 6,60
224,20.6889219410815,19.9999999999998,15, 8,30,26.5901567502889,30,17,30
225,17.4877122970678,5.47883432194143,16,16,60,35.3671922974529, 2,23,45
258,20.1742433402775,19.9999999999999,15, 8,30,21.7439120879743, 6,22,60
259,17.5711380959084,6.20959250800811,14,19,60,34.2620668986652, 2, 7,45
260,380546111.922045,0.0, 1,14,60,368346.869851309,22, 8,45
291,0.0,0.0, 1, 1,15,0.0, 1, 1,15
322,380546111.922053,0.0, 1,14,60,368346.869851313,22, 8,45
323,57936472.3964805,0.0, 1,20,15,66844.5355993748,22, 8,60
324,0.0,0.0, 1, 1,15,0.0, 1, 1,15
325,57936478.0085924,0.0, 1,20,15,66844.5355993755,22, 8,60
408,103312071.479191,0.0, 1, 1,15,166632.373353535, 1, 7,15
461,62089590.5287611,0.0, 1, 1,15,100144.500852841, 1, 7,15
4,59, 2
8,46551773.5299299,7056.14998937907, 1, 9,15,23520.4999645969, 1, 1,15
9,27977181.3252549,4240.68027363397, 1, 9,15,14135.6009121132, 1, 1,15
71,31204464.0654192,0.0, 1, 1,15,42054.5337808885, 1,20,15
93,18753591.6060067,0.0, 1, 1,15,25274.3822183378, 1,20,15
125,37776986.9163182,6007.79054012692, 1, 1,15,30038.9527006346, 1,19,15
137,22703616.4841296,3610.62603119112, 1, 1,15,18053.1301559556, 1,19,15
138,523505592.582756,0.0, 1, 1,15,1492666.21009585,26,16,30
139,0.0,0.0, 1, 1,15,0.0, 1, 1,15
140,21.4544193947378,17.4840363059263, 4, 7,30,32.1866919105009,24,18,15
141,21.3770402945254,19.5531832850168, 4, 8,60,25.6804485875976,24,23,60
142,21.7559283032085,19.9999999999998, 8, 8,45,32.2802084685573,24,17,60
143,21.6051738489731,18.7420181529632, 4, 7,30,32.2174671987714,24,17,60
144,21.0951038209293,19.9999999999999, 4, 3,30,25.3692464089219,24,22,60
145,21.2360720577273,19.7765916425084, 4, 8,60,25.5025962865887,24,23,60
146,185164846.427614,9261.64019685495,24,15, 3,100974.508528062, 8, 6,60
147,0.0,0.0, 1, 1,15,0.0, 1, 1,15
148,0.377135019568681,0.36208924543779,23,13,52,0.390414642469151, 8, 6,60
149,107540996.902002,4750.9537246555,24,15,33,60552.2401802089, 8, 6,60
150,0.0,0.0, 1, 1,15,0.0, 1, 1,15
151,0.376310518484514,0.360462117647179,23,15,60,0.390417381903363, 8, 6,60
224,21.7559283032085,19.9999999999998, 8, 8,45,32.2802084685573,24,17,60
225,17.7273821896449,4.49664811471579, 9,17,30,38.000882201281, 3,22,15
258,21.0951038209293,19.9999999999999, 4, 3,30,25.3692464089219,24,22,60
259,17.7164679605248,6.12789621709544, 9,17,60,38.3940275325394, 3,21,60
260,212849079.813105,0.0, 1,14,60,310684.447950652, 4, 7,30
291,0.0,0.0, 1, 1,15,0.0, 1, 1,15
322,212849079.813109,0.0, 1,14,60,310684.447950655, 4, 7,30
323,25772537.837294,0.0, 1, 1,15,54334.4471585093,11, 8,60
324,0.0,0.0, 1, 1,15,0.0, 1, 1,15
325,25772540.303958,0.0, 1, 1,15,54334.4471585097,11, 8,60
408,93314129.0779794,0.0, 1, 1,15,166632.373353535, 1, 7,15
461,56080920.4775907,0.0, 1, 1,15,100144.500852841, 1, 7,15
4,90, 3
8,51378180.1226652,7056.14998937907, 1, 9,15,23520.4999645969, 1, 1,15
9,30877806.6324206,4240.68027363397, 1, 9,15,14135.6009121132, 1, 1,15
71,34673963.1023425,0.0, 1, 1,15,42054.5337808885, 1,20,15
93,20838728.1390195,0.0, 1, 1,15,25274.3822183378, 1,20,15
125,41886315.6457651,6007.79054012692, 1, 1,15,30038.9527006346, 1,19,15
137,25173284.6894643,3610.62603119112, 1, 1,15,18053.1301559556, 1,19,15
138,696769519.710111,0.0, 1, 1,15,1578707.81512628,15,16,60
139,0.0,0.0, 1, 1,15,0.0, 1, 1,15
140,24.6548625991138,18.2626528976326, 2, 7,30,37.0637745841181,19,18,15
141,24.3004011289616,20.2212537207738, 9,13,30,29.7472508833006,19,24,15
142,24.2416367435967,19.9999999999999, 2, 6,60,37.1307327475651,19,18,15
143,24.4482496713552,19.1313264488163, 2, 7,30,37.0972536658416,19,18,15
144,23.9083713479311,20., 2,13,60,29.547583473224,19,23,45
145,24.1043862384464,20.1106268603869, 9,13,30,29.641273048692,19,23,60
146,180407495.052561,9087.8018011664,30,14,50,88339.5515933248, 7,18,30
147,0.0,0.0, 1, 1,15,0.0, 1, 1,15
148,0.372963430672631,0.35939672712838,30,13,30,0.386777269160416, 7,18,15
149,106513074.879389,4107.90126961717,30,15,50,55641.4450565864, 6, 3,60
150,0.0,0.0, 1, 1,15,0.0, 1, 1,15
151,0.372573430523022,0.357781642206873,30,15,60,0.385456424731691, 8, 3,60
224,24.2416367435967,19.9999999999999, 2, 6,60,37.1307327475651,19,18,15
225,20.7412653835494,5.46742566774659, 7,17,37,36.8534034224052,27, 6,15
258,23.9083713479311,20., 2,13,60,29.547583473224,19,23,45
259,20.4401880443777,7.86075589230432, 7,17,60,33.1351805948416,29, 6,60
260,34822270.0692516,0.0, 1, 1,15,200807.001033092, 2, 6,60
291,0.0,0.0, 1, 1,15,0.0, 1, 1,15
322,34822270.0692525,0.0, 1, 1,15,200807.001033097, 2, 6,60
323,413201.33250919,0.0, 1, 1,15,12600.0487176191, 2,12,15
324,0.0,0.0, 1, 1,15,0.0, 1, 1,15
325,413201.332509205,0.0, 1, 1,15,12600.0487176195, 2,12,15
408,103312071.479191,0.0, 1, 1,15,166632.373353535, 1, 7,15
461,62089590.5287611,0.0, 1, 1,15,100144.500852841, 1, 7,15
4,120, 4
8,50145705.9245203,7056.14998937907, 1,15,15,23520.4999645969, 1, 1,15
9,30137101.1446258,4240.68027363397, 1,15,15,14135.6009121132, 1, 1,15
71,33223081.6869018,0.0, 1, 1,15,42054.5337808885, 1,19,15
93,19966761.9524869,0.0, 1, 1,15,25274.3822183378, 1,19,15
125,40372352.4296531,6007.79054012692, 1, 1,15,30038.9527006346, 1,19,15
137,24263406.9296042,3610.62603119112, 1, 1,15,18053.1301559556, 1,19,15
138,625395370.150918,0.0, 1, 1,15,1587361.22692975, 8,16,60
139,0.0,0.0, 1, 1,15,0.0, 1, 1,15
140,28.1438913044374,18.9911715450943,26, 6,60,44.1329098374399,10,18,45
141,27.770110677597,20.996293269662,27,11,45,36.2936393683891,10,23,60
142,27.7131977993651,19.9999999999999, 1, 8,30,44.3252290079076,10,18,30
143,27.9285445519012,19.4955857725472,26, 6,60,44.2234726459643,10,18,45
144,27.4658149449921,20.7467430373117,26,11,45,35.9632092859741,10,21,60
145,27.6179628112945,20.8815293851703,27,11,30,36.1062612758327,10,22,60
146,154311191.763257,8128.07045228669, 8,15,48,93822.4652615641,11,22,60
147,0.0,0.0, 1, 1,15,0.0, 1, 1,15
148,0.368845562204654,0.355787597137263,19,12,60,0.380663785336673, 2,18,52
149,91646211.1891727,2592.13801987685,30,18,52,56108.0604082975,13, 2,60
150,0.0,0.0, 1, 1,15,0.0, 1, 1,15
151,0.368574160468311,0.355399501514972,19,12,60,0.377660585873915,11, 6,60
224,27.7131977993651,19.9999999999999, 1, 8,30,44.3252290079076,10,18,30
225,28.4566507336244,9.20252891571404,18,17,22,58.8520689130639,25, 3,60
258,27.4658149449921,20.7467430373117,26,11,45,35.9632092859741,10,21,60
259,27.8663130424911,12.9363181020716,11,16,60,52.5172811013816,25, 1,60
260,5849553.81135394,0.0, 1, 1,15,109526.159220564,26, 6,60
291,0.0,0.0, 1, 1,15,0.0, 1, 1,15
322,5849553.8113541,0.0, 1, 1,15,109526.159220567,26, 6,60
323,0.0,0.0, 1, 1,15,0.0, 1, 1,15
324,0.0,0.0, 1, 1,15,0.0, 1, 1,15
325,0.0,0.0, 1, 1,15,0.0, 1, 1,15
408,99979424.0121208,0.0, 1, 1,15,166632.373353535, 1, 6,15
461,60086700.5117043,0.0, 1, 1,15,100144.500852841, 1, 6,15
4,151, 5
8,51378180.1226652,7056.14998937907, 1, 8,15,23520.4999645969, 1, 1,15
9,30877806.6324206,4240.68027363397, 1, 8,15,14135.6009121132, 1, 1,15
71,34673963.1023425,0.0, 1, 1,15,42054.5337808885, 1,19,15
93,20838728.1390195,0.0, 1, 1,15,25274.3822183378, 1,19,15
125,41886315.6457651,6007.79054012692, 1, 1,15,30038.9527006346, 1,18,15
137,25173284.6894643,3610.62603119112, 1, 1,15,18053.1301559556, 1,18,15
138,628994388.91114,0.0, 1, 1,15,1436824.84546046, 5,16,60
139,0.0,0.0, 1, 1,15,0.0, 1, 1,15
140,32.2847935631675,23.0841788729292,30, 6,60,46.3846892889933,25,18,15
141,31.9323481995016,25.4917066649019,30,11,30,39.248025818954,25,24,15
142,31.8596567586194,22.849987915285,30, 6,60,46.6438654725112,25,18,30
143,32.0722251608935,22.9670833941071,30, 6,60,46.5085347536484,25,18,15
144,31.6548346134249,25.3965421900027,30, 9,45,39.121345970515,25,22,60
145,31.7935914064632,25.4472697245112,30,11,30,39.1553991585742,25,22,60
146,153593434.012704,6762.40388202634,31,14,50,92460.8986429605, 8, 1,60
147,0.0,0.0, 1, 1,15,0.0, 1, 1,15
148,0.366834396478109,0.354370282800714,30,13,45,0.375080401048328,17,23, 7
149,91945844.8591896,0.0,11,18,50,58024.2119212721,17, 5,60
150,2182.17313155948,0.0, 1, 1,15,850.449433738015,11,19, 7
151,0.366617205003339,0.351865250303094,30,15,60,0.377048538148414, 6, 6,60
224,31.8596567586194,22.849987915285,30, 6,60,46.743098597016,25,18,15
225,32.8323607591726,10.1366516860571, 8,17,60,61.6624699516341,29, 4,30
258,31.6548346134249,25.3965421900027,30, 9,45,39.121345970515,25,22,60
259,32.2055877018866,16.3310806481241, 8,17,10,54.6557274516203,28,15,30
260,0.0,0.0, 1, 1,15,0.0, 1, 1,15
291,0.0,0.0, 1, 1,15,0.0, 1, 1,15
322,0.0,0.0, 1, 1,15,0.0, 1, 1,15
323,0.0,0.0, 1, 1,15,0.0, 1, 1,15
324,0.0,0.0, 1, 1,15,0.0, 1, 1,15
325,0.0,0.0, 1, 1,15,0.0, 1, 1,15
408,103312071.479191,0.0, 1, 1,15,166632.373353535, 1, 6,15
461,62089590.5287611,0.0, 1, 1,15,100144.500852841, 1, 6,15
4,181, 6
8,49769377.9250868,7056.14998937907, 1, 8,15,23520.4999645969, 1, 1,15
9,29910931.530032,4240.68027363397, 1, 8,15,14135.6009121132, 1, 1,15
71,33517463.423368,0.0, 1, 1,15,42054.5337808885, 1,19,15
93,20143682.6280153,0.0, 1, 1,15,25274.3822183378, 1,19,15
125,40516539.4026162,6007.79054012692, 1, 1,15,30038.9527006346, 1,18,15
137,24350061.9543528,3610.62603119112, 1, 1,15,18053.1301559556, 1,18,15
138,596247079.949358,0.0, 1, 1,15,1400554.56798353, 1,17,15
139,0.0,0.0, 1, 1,15,0.0, 1, 1,15
140,37.0704601295791,29.2907344449097,15, 7,15,49.3600608521954, 9,18,15
141,36.6104781994144,31.1017590777998,15,11,45,42.2689471501352, 9,23,60
142,36.6478729029705,29.0338778627826,15, 6,60,49.620987358708, 9,18,30
143,36.8591665162748,29.1652988996042,15, 6,60,49.4662345005134, 9,18,15
144,36.3293812021702,30.9921516365982,15,11,45,42.0560510319205, 9,21,60
145,36.4699297007923,31.046955357199,15,11,45,42.1503198759264, 9,22,60
146,151424967.881464,6712.67539832617, 1,15,50,77117.9288983154, 1, 4,45
147,0.0,0.0, 1, 1,15,0.0, 1, 1,15
148,0.366020736186414,0.355422761611786,15,13,45,0.375405084059444, 7,18,20
149,90259097.8836396,1354.35993764703, 1,15,50,49401.5517900623, 8, 3,60
150,0.0,0.0, 1, 1,15,0.0, 1, 1,15
151,0.365663012481594,0.353511917562922,15,15,60,0.3760124725006,12, 6,45
224,36.6478729029705,29.0338778627826,15, 6,60,49.696446958463, 9,18,15
225,35.3960586937904,10.9364650085287, 8,18, 7,63.3704421403802,15, 6,60
258,36.3293812021702,30.9921516365982,15,11,45,42.0560510319205, 9,21,60
259,35.25127199165,16.9167584295589, 8,16,60,57.6440941264558,14, 5,60
260,0.0,0.0, 1, 1,15,0.0, 1, 1,15
291,0.0,0.0, 1, 1,15,0.0, 1, 1,15
322,0.0,0.0, 1, 1,15,0.0, 1, 1,15
323,0.0,0.0, 1, 1,15,0.0, 1, 1,15
324,0.0,0.0, 1, 1,15,0.0, 1, 1,15
325,0.0,0.0, 1, 1,15,0.0, 1, 1,15
408,99979424.0121208,0.0, 1, 1,15,166632.373353535, 1, 6,15
461,60086700.5117043,0.0, 1, 1,15,100144.500852841, 1, 6,15
4,212, 7
8,51754508.1220987,7056.14998937907, 1,15,15,23520.4999645969, 1, 1,15
9,31103976.2470144,4240.68027363397, 1,15,15,14135.6009121132, 1, 1,15
71,34379581.3658762,0.0, 1, 1,15,42054.5337808885, 1,19,15
93,20661807.4634912,0.0, 1, 1,15,25274.3822183378, 1,19,15
125,41742128.6728021,6007.79054012692, 1, 1,15,30038.9527006346, 1,19,15
137,25086629.6647157,3610.62603119112, 1, 1,15,18053.1301559556, 1,19,15
138,501366513.618394,0.0, 1, 1,15,1233452.42256992, 6,16,60
139,0.0,0.0, 1, 1,15,0.0, 1, 1,15
140,27.0772504589397,24.2098046696294,18, 2,15,34.7601091928492, 1,14,15
141,25.9135696925554,24.5242905309948,17,22,15,34.9567572305192, 1, 1,15
142,25.8128279162678,23.9336926426458, 2,14,15,34.3205678300843, 1,13,60
143,26.4450391876037,24.1402049152767,17,21,60,34.4035424134517, 1,13,60
144,25.4795391077528,23.9686615751998,17,14,15,34.5452395288879, 1, 1,15
145,25.6965544001541,24.2651912445704,17,21,60,34.7509983797035, 1, 1,15
146,26152207.8067298,0.0, 1,14, 2,48573.0515370307, 1, 1,15
147,22876830.5565119,0.0, 1, 1,15,50873.4521415078,30,14,45
148,0.350569992233601,0.341462568093781,20,15,60,0.362365109236717, 1, 1,60
149,14170576.0582605,0.0, 1,14, 2,32614.8175433698, 1, 3,60
150,13598450.9154847,0.0, 1, 1,15,29673.3351926308,31,15,60
151,0.350179913375371,0.341455215909796,20,15,60,0.364315981402404, 1, 3,60
224,25.8128279162678,23.308329772729, 2,14, 5,34.3205678300843, 1,13,60
225,72.0873724317836,48.6619179729446, 1,13,60,91.1462258278493, 2,14, 3
258,25.4795391077528,23.3667539567979, 1,14, 3,34.5452395288879, 1, 1,15
259,73.5792229599537,49.0251675670326, 1, 1,15,89.9127400044188, 2,14, 3
260,0.0,0.0, 1, 1,15,0.0, 1, 1,15
291,525710111.7532,0.0, 1, 1,15,1404575.81542582, 1,14,45
322,5.410330743416125E-006,0.0, 1, 1,15,1.294324647460599E-007, 6,16,15
323,0.0,0.0, 1, 1,15,0.0, 1, 1,15
324,144233174.627318,0.0, 1, 1,15,851823.453157449, 1,14,45
325,8.494274084114295E-007,0.0, 1, 1,15,3.274180926382542E-008, 1,15,45
408,103312071.479191,0.0, 1, 1,15,166632.373353535, 1, 6,15
461,62089590.5287611,0.0, 1, 1,15,100144.500852841, 1, 6,15
4,243, 8
8,51378180.1226652,7056.14998937907, 1, 8,15,23520.4999645969, 1, 1,15
9,30877806.6324206,4240.68027363397, 1, 8,15,14135.6009121132, 1, 1,15
71,34673963.1023425,0.0, 1, 1,15,42054.5337808885, 1,19,15
93,20838728.1390195,0.0, 1, 1,15,25274.3822183378, 1,19,15
125,41886315.6457651,6007.79054012692, 1, 1,15,30038.9527006346, 1,18,15
137,25173284.6894643,3610.62603119112, 1, 1,15,18053.1301559556, 1,18,15
138,584368941.40424,0.0, 1, 1,15,1396400.05943332,30,16,45
139,0.0,0.0, 1, 1,15,0.0, 1, 1,15
140,27.2946021830218,23.1700682377912,26, 7,15,31.9560011193106,30,17,30
141,25.8520401226639,24.3919453822168,26, 8,15,27.7167095718895, 7,14,15
142,25.8537164895136,22.9789625234127,26, 6,60,31.1672200804963, 7,13,60
143,26.5741593362677,23.0746294987552,26, 7,15,31.0599347582956, 7,13,60
144,25.401709669425,23.9333575250815,25,14,15,27.9858003579059, 7,13,60
145,25.6268748960445,24.3602132729076,25,21,60,27.8182660132806, 7,13,60
146,26642742.310031,0.0, 1,14, 1,32574.70774666,28, 6,60
147,24502030.8191649,0.0, 1, 1,15,52400.7487066445, 7,15,60
148,0.350048600696576,0.339046380286306, 7,15,60,0.357584961964285,28, 6,60
149,13997782.1285985,0.0, 1,13,15,20679.5972767745,28, 6,60
150,14714553.1961251,0.0, 1, 1,15,30944.5361020802, 7,15,60
151,0.349521638733441,0.339035287212372, 7,15,60,0.358378841704951,28, 6,60
224,25.8537164895136,22.9789625234127,26, 6,60,31.1672200804963, 7,13,60
225,70.6508903380544,46.9293639066516,30,13,60,91.1830858902424, 2, 5,60
258,25.401709669425,23.5455057652422, 8,14, 3,27.9858003579059, 7,13,60
259,72.6012740716516,54.5382665437395,27,22,30,92.3912107546464, 2, 5,60
260,0.0,0.0, 1, 1,15,0.0, 1, 1,15
291,603087381.643261,0.0, 1, 1,15,1144979.32038826,30,17,30
322,6.818013573976785E-006,0.0, 1, 1,15,1.209400579682551E-007,30,16,45
323,0.0,0.0, 1, 1,15,0.0, 1, 1,15
324,147928345.36488,0.0, 1, 1,15,303764.349417499, 7,14, 1
325,9.377052267135234E-007,0.0, 1, 1,15,3.097682110819733E-008, 8,14,60
408,103312071.479191,0.0, 1, 1,15,166632.373353535, 1, 6,15
461,62089590.5287611,0.0, 1, 1,15,100144.500852841, 1, 6,15
4,273, 9
8,49957541.9248035,7056.14998937907, 1, 8,15,23520.4999645969, 1, 1,15
9,30024016.337329,4240.68027363397, 1, 8,15,14135.6009121132, 1, 1,15
71,33370272.5551349,0.0, 1, 1,15,42054.5337808885, 1,19,15
93,20055222.2902511,0.0, 1, 1,15,25274.3822183378, 1,19,15
125,40444445.9161346,6007.79054012692, 1, 1,15,30038.9527006346, 1,18,15
137,24306734.4419785,3610.62603119112, 1, 1,15,18053.1301559556, 1,18,15
138,586445047.434799,0.0, 1, 1,15,1517602.07987211,22,16,30
139,0.0,0.0, 1, 1,15,0.0, 1, 1,15
140,26.2800988522182,22.503656906654,30, 7,30,32.0096107249758, 6,17,30
141,25.319083067149,23.9390459584024,30, 8,60,26.6152836349787, 7,14,15
142,24.886897947995,22.2574322281307,30, 7,30,29.3935129288461, 7,13,60
143,25.5834984001066,22.3805445673924,30, 7,30,29.4050229632189, 7,13,60
144,24.9144798103698,23.837401388644,30, 7,60,26.8088992232041, 7,13,60
145,25.1167814387594,23.9036740490072,30, 7,60,26.6825584884716, 7,13,60
146,48356622.6651118,0.0, 1,14, 1,49754.177485348,15,24,60
147,2841260.04837743,0.0, 1, 1,15,25774.5582218313,20,18,60
148,0.353812381203787,0.342494102053515, 6,15,60,0.362034108447067,30,24,60
149,28917150.0963498,0.0, 1,13,52,29671.7007113395,15,24,60
150,1633899.40671641,0.0, 1, 1,15,16825.7331888953,20,18,60
151,0.353851431714622,0.342500811334176, 6,15,60,0.362831895022659,30,24,60
224,24.886897947995,22.2574322281307,30, 7,30,29.5214231513567, 7,13,60
225,61.7278030156005,33.8488129682896,16,13,60,84.5694660226764,29, 5,60
258,24.9144798103698,23.6043655275126, 1,14, 3,26.8274518709673, 7,13,60
259,61.4309377684224,36.9560224562192,16,22,30,83.1417292601398, 9, 6,60
260,0.0,0.0, 1, 1,15,0.0, 1, 1,15
291,489396252.229142,0.0, 1, 1,15,1161228.62131419, 6,17,30
322,9.598942565399021E-006,0.0, 1, 1,15,1.317857822868973E-007,23,16,15
323,0.0,0.0, 1, 1,15,0.0, 1, 1,15
324,93100164.4457542,0.0, 1, 1,15,198128.691148176, 7,14,45
325,1.951468834549863E-006,0.0, 1, 1,15,2.215188033005688E-008, 6,14,45
408,99979424.0121208,0.0, 1, 1,15,166632.373353535, 1, 6,15
461,60086700.5117043,0.0, 1, 1,15,100144.500852841, 1, 6,15
4,304,10
8,51566344.1223819,7056.14998937907, 1,15,15,23520.4999645969, 1, 1,15
9,30990891.4397175,4240.68027363397, 1,15,15,14135.6009121132, 1, 1,15
71,34526772.2341093,0.0, 1, 1,15,42054.5337808885, 1,19,15
93,20750267.8012554,0.0, 1, 1,15,25274.3822183378, 1,19,15
125,41814222.1592836,6007.79054012692, 1, 1,15,30038.9527006346, 1,19,15
137,25129957.17709,3610.62603119112, 1, 1,15,18053.1301559556, 1,19,15
138,558431742.195001,0.0, 1, 1,15,1426664.56708743,15,16,30
139,0.0,0.0, 1, 1,15,0.0, 1, 1,15
140,29.3762158287655,20.3627252395433,24, 7,30,41.1094968898438, 9,17,60
141,29.1552342277942,23.368544506101,31,14,15,34.9665810933732, 9,23,30
142,28.9873500360629,20.,24, 9,30,41.0755802145585, 9,18,15
143,29.1817829324143,20.18136263338,24, 7,30,41.0837247547363, 9,18,15
144,28.8993694389105,22.9933534412473,31,14,15,34.7422322978549, 9,21,60
145,29.0273018333524,23.1809489736742,31,14,15,34.8295127932312, 9,22,60
146,147993056.473528,8015.62192855324, 1,14, 5,93586.768332048,15,24,60
147,0.0,0.0, 1, 1,15,0.0, 1, 1,15
148,0.366559328333223,0.355268000770722, 2,12,60,0.37910900842609,18,17,52
149,88653323.2075749,3182.7321991062,14,18,52,56361.3156690742,15,24,60
150,0.0,0.0, 1, 1,15,0.0, 1, 1,15
151,0.366478197027029,0.354703577776747, 2,15,30,0.378488738489341,19, 3,22
224,28.9873500360629,20.,24, 9,30,41.0866476396552, 9,18,15
225,33.5261103609593,10.0136220778277,16,17,15,62.2257037255994,28,24,30
258,28.8993694389105,22.9933042073382,31,14,15,34.7422322978549, 9,21,60
259,32.978569582198,14.6038599413031,19,16,10,55.1247020207244,28,24,30
260,66899.8760315146,0.0, 1, 1,15,16028.9003481473,24, 7,30
291,0.0,0.0, 1, 1,15,0.0, 1, 1,15
322,66899.8760315153,0.0, 1, 1,15,16028.9003481474,24, 7,30
323,0.0,0.0, 1, 1,15,0.0, 1, 1,15
324,0.0,0.0, 1, 1,15,0.0, 1, 1,15
325,0.0,0.0, 1, 1,15,0.0, 1, 1,15
408,103312071.479191,0.0, 1, 1,15,166632.373353535, 1, 6,15
461,62089590.5287611,0.0, 1, 1,15,100144.500852841, 1, 6,15
4,334,11
8,49769377.9250868,7056.14998937907, 1, 9,15,23520.4999645969, 1, 1,15
9,29910931.530032,4240.68027363397, 1, 9,15,14135.6009121132, 1, 1,15
71,33517463.423368,0.0, 1, 1,15,42054.5337808885, 1,20,15
93,20143682.6280153,0.0, 1, 1,15,25274.3822183378, 1,20,15
125,40516539.4026162,6007.79054012692, 1, 1,15,30038.9527006346, 1,19,15
137,24350061.9543528,3610.62603119112, 1, 1,15,18053.1301559556, 1,19,15
138,422971849.112511,0.0, 1, 1,15,1200942.26944134, 5,15,60
139,0.0,0.0, 1, 1,15,0.0, 1, 1,15
140,22.2563918499812,17.5372897460898,27, 7,60,32.8673643464858, 6,17,15
141,22.5163074778145,19.6566817972476,27, 9,30,27.7160906556131, 6,24,15
142,22.3444314652367,19.9999999999998,24, 1,15,33.0386303208438, 6,17,15
143,22.3004116576089,18.7686448730448,27, 7,60,32.9529973336648, 6,17,15
144,22.3164277285399,19.9999999999999,27, 3,30,27.8284919534537, 7,22,60
145,22.4163676031772,19.8283408986238,27, 9,30,27.7447113935429, 7,22,60
146,139629813.543878,6067.20025546158,18,14,52,81185.4524947717,30,24,60
147,0.0,0.0, 1, 1,15,0.0, 1, 1,15
148,0.368165258532181,0.356764473511141,14,12,60,0.380975132491221,23, 8,60
149,83892455.0710606,3284.23537415572,13,14,50,48198.7278939472,23, 7,60
150,0.0,0.0, 1, 1,15,0.0, 1, 1,15
151,0.368144218628747,0.355357482219198, 5,15,60,0.380985043171988,23, 8,60
224,22.3444314652367,19.9999999999998,24, 1,15,33.0386303208438, 6,17,15
225,33.2401338492859,12.7561525128937,27,17,15,61.3771988425492,19,11,30
258,22.3164277285399,19.9999999999999,27, 3,30,27.8284919534537, 7,22,60
259,32.8718016488658,15.2800323292127,23,13,15,57.937332379648,19,12,45
260,117993387.677775,0.0, 1, 1,15,291784.021615953,27, 6,60
291,0.0,0.0, 1, 1,15,0.0, 1, 1,15
322,117993387.677777,0.0, 1, 1,15,291784.021615953,27, 6,60
323,8128790.75936701,0.0, 1, 1,15,39154.9109585546,27, 6,60
324,0.0,0.0, 1, 1,15,0.0, 1, 1,15
325,8128795.20834918,0.0, 1, 1,15,39154.9109585551,27, 6,60
408,99979424.0121208,0.0, 1, 1,15,166632.373353535, 1, 7,15
461,60086700.5117043,0.0, 1, 1,15,100144.500852841, 1, 7,15
4,365,12
8,51754508.1220987,7056.14998937907, 1, 9,15,23520.4999645969, 1, 1,15
9,31103976.2470144,4240.68027363397, 1, 9,15,14135.6009121132, 1, 1,15
71,34379581.3658762,0.0, 1, 1,15,42054.5337808885, 1,20,15
93,20661807.4634912,0.0, 1, 1,15,25274.3822183378, 1,20,15
125,41742128.6728021,6007.79054012692, 1, 1,15,30038.9527006346, 1,19,15
137,25086629.6647157,3610.62603119112, 1, 1,15,18053.1301559556, 1,19,15
138,442333904.909037,0.0, 1, 1,15,1210716.80944114,31,15,60
139,0.0,0.0, 1, 1,15,0.0, 1, 1,15
140,19.9157754523607,17.2273934122183,31, 6,60,25.8920986080974, 4,17,15
141,20.3265207011482,19.5011494549348,31, 8,60,21.902418078755,29,23,60
142,20.6371484027658,19.9999999999998,18, 6,15,25.9792647127161,29,17,15
143,20.2764619275633,18.6136967061091,31, 6,60,25.9248493836925,29,17,15
144,20.1840897692052,19.9999999999999,15, 4,45,21.8144712597027,29,22,60
145,20.2553052351767,19.7505747274674,31, 8,60,21.8306962101509,29,22,60
146,203737880.165012,12270.2646244114,29,15, 5,111496.580454698,31, 9,60
147,0.0,0.0, 1, 1,15,0.0, 1, 1,15
148,0.377126961912986,0.363063814205288,29,14,15,0.394487145845528,31,24,60
149,119588854.396151,6449.15260553027,29,15,60,66765.4040114427,31, 9,60
150,0.0,0.0, 1, 1,15,0.0, 1, 1,15
151,0.376555020575503,0.361635667329951,29,15,60,0.394483114191248,31,24,60
224,20.6371484027658,19.9999999999998,18, 6,15,25.9792647127161,29,17,15
225,20.02379492572,6.48561102534204,15,16,60,40.2806423347394,25, 4,30
258,20.1840897692052,19.9999999999999,15, 4,45,21.8144712597027,29,22,60
259,20.1762804216414,7.34109798070816,16,19,60,40.8709173370636,25, 4,15
260,341449002.8553,0.0, 1,14,22,373002.319194575,31, 6,60
291,0.0,0.0, 1, 1,15,0.0, 1, 1,15
322,341449002.855308,0.0, 1,14,22,373002.319194576,31, 6,60
323,48881646.243248,0.0, 1,17,15,66177.911963224,31, 6,60
324,0.0,0.0, 1, 1,15,0.0, 1, 1,15
325,48881651.0383224,0.0, 1,17,15,66177.9119632247,31, 6,60
408,103312071.479191,0.0, 1, 1,15,166632.373353535, 1, 7,15
461,62089590.5287611,0.0, 1, 1,15,100144.500852841, 1, 7,15
End of Data
 Number of Records Written=         384
