Program Version,EnergyPlus, Version 8.4.0-09f5359d8a, YMD=2023.08.02 14:39
1,5,Environment Title[],Latitude[deg],Longitude[deg],Time Zone[],Elevation[m]
2,6,Day of Simulation[],Month[],Day of Month[],DST Indicator[1=yes 0=no],Hour[],StartMinute[],EndMinute[],DayType
3,3,Cumulative Day of Simulation[],Month[],Day of Month[],DST Indicator[1=yes 0=no],DayType  ! When Daily Report Variables Requested
4,2,Cumulative Days of Simulation[],Month[]  ! When Monthly Report Variables Requested
5,1,Cumulative Days of Simulation[] ! When Run Period Report Variables Requested
8,9,PERIM,Zone People Total Heating Energy [J] !Monthly  [Value,Min,Day,Hour,Minute,Max,Day,Hour,Minute]
9,9,CORE,Zone People Total Heating Energy [J] !Monthly  [Value,Min,Day,Hour,Minute,Max,Day,Hour,Minute]
71,9,PERIM,Zone Lights Electric Energy [J] !Monthly  [Value,Min,Day,Hour,Minute,Max,Day,Hour,Minute]
93,9,CORE,Zone Lights Electric Energy [J] !Monthly  [Value,Min,Day,Hour,Minute,Max,Day,Hour,Minute]
125,9,PERIM,Zone Electric Equipment Electric Energy [J] !Monthly  [Value,Min,Day,Hour,Minute,Max,Day,Hour,Minute]
137,9,CORE,Zone Electric Equipment Electric Energy [J] !Monthly  [Value,Min,Day,Hour,Minute,Max,Day,Hour,Minute]
138,9,PERIM,Zone Windows Total Transmitted Solar Radiation Energy [J] !Monthly  [Value,Min,Day,Hour,Minute,Max,Day,Hour,Minute]
139,9,CORE,Zone Windows Total Transmitted Solar Radiation Energy [J] !Monthly  [Value,Min,Day,Hour,Minute,Max,Day,Hour,Minute]
140,9,PERIM,Zone Mean Radiant Temperature [C] !Monthly [Value,Min,Day,Hour,Minute,Max,Day,Hour,Minute]
141,9,CORE,Zone Mean Radiant Temperature [C] !Monthly [Value,Min,Day,Hour,Minute,Max,Day,Hour,Minute]
142,9,PERIM,Zone Mean Air Temperature [C] !Monthly [Value,Min,Day,Hour,Minute,Max,Day,Hour,Minute]
143,9,PERIM,Zone Operative Temperature [C] !Monthly [Value,Min,Day,Hour,Minute,Max,Day,Hour,Minute]
144,9,CORE,Zone Mean Air Temperature [C] !Monthly [Value,Min,Day,Hour,Minute,Max,Day,Hour,Minute]
145,9,CORE,Zone Operative Temperature [C] !Monthly [Value,Min,Day,Hour,Minute,Max,Day,Hour,Minute]
146,9,PERIM,Zone Infiltration Total Heat Loss Energy [J] !Monthly  [Value,Min,Day,Hour,Minute,Max,Day,Hour,Minute]
147,9,PERIM,Zone Infiltration Total Heat Gain Energy [J] !Monthly  [Value,Min,Day,Hour,Minute,Max,Day,Hour,Minute]
148,9,PERIM,Zone Infiltration Air Change Rate [ach] !Monthly [Value,Min,Day,Hour,Minute,Max,Day,Hour,Minute]
149,9,CORE,Zone Infiltration Total Heat Loss Energy [J] !Monthly  [Value,Min,Day,Hour,Minute,Max,Day,Hour,Minute]
150,9,CORE,Zone Infiltration Total Heat Gain Energy [J] !Monthly  [Value,Min,Day,Hour,Minute,Max,Day,Hour,Minute]
151,9,CORE,Zone Infiltration Air Change Rate [ach] !Monthly [Value,Min,Day,Hour,Minute,Max,Day,Hour,Minute]
224,9,PERIM,Zone Air Temperature [C] !Monthly [Value,Min,Day,Hour,Minute,Max,Day,Hour,Minute]
225,9,PERIM,Zone Air Relative Humidity [%] !Monthly [Value,Min,Day,Hour,Minute,Max,Day,Hour,Minute]
258,9,CORE,Zone Air Temperature [C] !Monthly [Value,Min,Day,Hour,Minute,Max,Day,Hour,Minute]
259,9,CORE,Zone Air Relative Humidity [%] !Monthly [Value,Min,Day,Hour,Minute,Max,Day,Hour,Minute]
260,9,PERIM IDEAL LOADS AIR,Zone Ideal Loads Supply Air Total Heating Energy [J] !Monthly  [Value,Min,Day,Hour,Minute,Max,Day,Hour,Minute]
291,9,PERIM IDEAL LOADS AIR,Zone Ideal Loads Supply Air Total Cooling Energy [J] !Monthly  [Value,Min,Day,Hour,Minute,Max,Day,Hour,Minute]
322,9,PERIM IDEAL LOADS AIR,Zone Ideal Loads Zone Total Heating Energy [J] !Monthly  [Value,Min,Day,Hour,Minute,Max,Day,Hour,Minute]
323,9,CORE IDEAL LOADS AIR,Zone Ideal Loads Supply Air Total Heating Energy [J] !Monthly  [Value,Min,Day,Hour,Minute,Max,Day,Hour,Minute]
324,9,CORE IDEAL LOADS AIR,Zone Ideal Loads Supply Air Total Cooling Energy [J] !Monthly  [Value,Min,Day,Hour,Minute,Max,Day,Hour,Minute]
325,9,CORE IDEAL LOADS AIR,Zone Ideal Loads Zone Total Heating Energy [J] !Monthly  [Value,Min,Day,Hour,Minute,Max,Day,Hour,Minute]
408,9,DHW PERIM,Water Use Equipment Heating Energy [J] !Monthly  [Value,Min,Day,Hour,Minute,Max,Day,Hour,Minute]
461,9,DHW CORE,Water Use Equipment Heating Energy [J] !Monthly  [Value,Min,Day,Hour,Minute,Max,Day,Hour,Minute]
End of Data Dictionary
1,ARCHSIM,  37.57, 126.97,   9.00,  87.10
4,31, 1
8,51566344.1319699,7056.14999069097, 1,16,15,23520.4999689699, 1, 1,15
9,30990891.442609,4240.68027402972, 1,16,15,14135.6009134324, 1, 1,15
71,34526772.2405287,0.0, 1, 1,15,42054.5337887074, 1,20,15
93,20750267.8031919,0.0, 1, 1,15,25274.3822206965, 1,20,15
125,41814222.1670577,6007.79054124391, 1, 1,15,30038.9527062195, 1,20,15
137,25129957.1794354,3610.62603152807, 1, 1,15,18053.1301576404, 1,20,15
138,485594480.697919,0.0, 1, 1,15,1413895.85936035,30,16,30
139,0.0,0.0, 1, 1,15,0.0, 1, 1,15
140,19.9365186014086,17.1776003047189,22, 8,45,27.0083316022074,30,17,45
141,20.3342787545434,19.4677023982635,22, 8,60,21.9213805342815, 6,23,60
142,20.7084512572516,19.9999999999998,23, 7,30,26.6803527271473,30,17,30
143,20.3224849293301,18.5888001523594,22, 8,45,26.8358804664572,30,17,45
144,20.1843924142982,19.9999999999999,24, 6,45,21.7764225997545, 6,22,45
145,20.2593355844208,19.7338511991318,22, 8,60,21.8250764607774, 6,22,60
146,221261124.297142,11233.3211378053, 6,14,35,109767.939250012,23, 6,60
147,0.0,0.0, 1, 1,15,0.0, 1, 1,15
148,0.379694041876724,0.362611694355557, 8,12,60,0.394198624808164,23, 6,60
149,129615465.15834,5165.46317730302, 6,15,50,66009.6259730025,23, 6,60
150,0.0,0.0, 1, 1,15,0.0, 1, 1,15
151,0.379027624389385,0.361642912329053, 6,15,60,0.394197798374509,23, 6,60
224,20.7084512572516,19.9999999999998,23, 7,30,26.6803527271473,30,17,30
225,17.4764010485236,5.46211768555712,16,16,60,35.3496240474482, 2,23,45
258,20.1843924142982,19.9999999999999,24, 6,45,21.7764225997545, 6,22,45
259,17.5624166331377,6.20523179285138,14,19,60,34.2663835587191, 2, 7,45
260,379096401.45205,0.0, 1,14,45,370696.02926203,22, 8,45
291,0.0,0.0, 1, 1,15,0.0, 1, 1,15
322,379096401.452057,0.0, 1,14,45,370696.029262053,22, 8,45
323,56926939.5233543,0.0, 1,20,15,66914.1737619618,22, 8,60
324,0.0,0.0, 1, 1,15,0.0, 1, 1,15
325,56926944.865766,0.0, 1,20,15,66914.1737619623,22, 8,60
408,103312071.498399,0.0, 1, 1,15,166632.373384515, 1, 7,15
461,62089590.5345556,0.0, 1, 1,15,100144.500862186, 1, 7,15
4,59, 2
8,46551773.5385855,7056.14999069097, 1, 9,15,23520.4999689699, 1, 1,15
9,27977181.3278652,4240.68027402972, 1, 9,15,14135.6009134324, 1, 1,15
71,31204464.0712208,0.0, 1, 1,15,42054.5337887074, 1,20,15
93,18753591.6077569,0.0, 1, 1,15,25274.3822206965, 1,20,15
125,37776986.9233417,6007.79054124391, 1, 1,15,30038.9527062195, 1,19,15
137,22703616.4862485,3610.62603152807, 1, 1,15,18053.1301576404, 1,19,15
138,537478815.981443,0.0, 1, 1,15,1503534.56280159,26,16,30
139,0.0,0.0, 1, 1,15,0.0, 1, 1,15
140,21.5165059602262,17.4775607010599, 4, 7,30,32.3266467585696,24,18,15
141,21.4207577752337,19.5528924121709, 4, 8,60,25.7638094452456,24,23,60
142,21.7978941518112,19.9999999999998, 4, 7,60,32.4138321605831,24,17,60
143,21.6572000560187,18.73878035053, 4, 7,30,32.3557786027216,24,17,60
144,21.1286627324527,19.9999999999999,11, 4,30,25.447415252614,24,22,60
145,21.2747102538432,19.7764462060855, 4, 8,60,25.5836192678651,24,23,60
146,185720108.719717,9363.31270745169,24,15, 3,101050.169836487, 8, 6,60
147,0.0,0.0, 1, 1,15,0.0, 1, 1,15
148,0.377215614723886,0.362304369023917,23,13,52,0.390444565205164, 8, 6,60
149,107836481.965087,4792.70781583078,24,15,33,60598.0280677832, 8, 6,60
150,0.0,0.0, 1, 1,15,0.0, 1, 1,15
151,0.376380640985452,0.360587746112689,23,15,60,0.390447294578861, 8, 6,60
224,21.7978941518112,19.9999999999998, 4, 7,60,32.4138321605831,24,17,60
225,17.704437986481,4.47620336304237, 9,17,30,38.0078774706077, 3,22,15
258,21.1286627324527,19.9999999999999,11, 4,30,25.447415252614,24,22,60
259,17.6953210391687,6.11511075978867, 9,17,60,38.3963707593588, 3,21,60
260,210430185.130559,0.0, 1,14,60,311536.922609668, 4, 7,30
291,0.0,0.0, 1, 1,15,0.0, 1, 1,15
322,210430185.130564,0.0, 1,14,60,311536.922609685, 4, 7,30
323,24842677.4290379,0.0, 1, 1,15,54155.3300656495,11, 8,60
324,0.0,0.0, 1, 1,15,0.0, 1, 1,15
325,24842680.1703075,0.0, 1, 1,15,54155.3300656502,11, 8,60
408,93314129.095328,0.0, 1, 1,15,166632.373384515, 1, 7,15
461,56080920.4828244,0.0, 1, 1,15,100144.500862186, 1, 7,15
4,90, 3
8,51378180.1322182,7056.14999069097, 1, 9,15,23520.4999689699, 1, 1,15
9,30877806.6353015,4240.68027402972, 1, 9,15,14135.6009134324, 1, 1,15
71,34673963.1087892,0.0, 1, 1,15,42054.5337887074, 1,20,15
93,20838728.1409643,0.0, 1, 1,15,25274.3822206965, 1,20,15
125,41886315.6535526,6007.79054124391, 1, 1,15,30038.9527062195, 1,19,15
137,25173284.6918137,3610.62603152807, 1, 1,15,18053.1301576404, 1,19,15
138,716870268.337623,0.0, 1, 1,15,1589396.98479344,15,16,45
139,0.0,0.0, 1, 1,15,0.0, 1, 1,15
140,24.8206548277071,18.304150149029, 2, 7,30,37.2481354884268,19,18,15
141,24.4502467727562,20.2697484999763, 9,13,30,29.8665066448695,19,24,15
142,24.387396596826,19.9999999999999, 8, 8,15,37.3028803878313,19,18,15
143,24.6040257122665,19.1520750745145, 2, 7,30,37.2755079381291,19,18,15
144,24.0513193509248,20., 2,12,15,29.6578998309752,19,23,45
145,24.2507830618406,20.1348742499881, 9,13,30,29.7563932693058,19,23,60
146,182115008.674927,9379.86534885759,30,14,50,88821.4244508937, 7,18,30
147,0.0,0.0, 1, 1,15,0.0, 1, 1,15
148,0.373171048890768,0.359729914190613,30,13,30,0.386984659055773, 7,18,15
149,107530662.825573,4238.10961221191,30,15,50,55954.7393918368, 6, 3,60
150,0.0,0.0, 1, 1,15,0.0, 1, 1,15
151,0.372778445752671,0.358044618689075,30,15,60,0.385584086525994, 8, 3,60
224,24.387396596826,19.9999999999999, 8, 8,15,37.3028803878313,19,18,15
225,20.6374555749938,5.41696976863071, 7,17,37,36.7063772401956,27, 6,45
258,24.0513193509248,20., 2,12,15,29.6578998309752,19,23,45
259,20.3286842088026,7.79632376086264, 7,17,60,32.8529271341762,29, 6,60
260,32813422.8279022,0.0, 1, 1,15,196755.977088905, 2, 6,60
291,0.0,0.0, 1, 1,15,0.0, 1, 1,15
322,32813422.8279029,0.0, 1, 1,15,196755.977088908, 2, 6,60
323,258218.433664746,0.0, 1, 1,15,8782.63196763017, 2,12,30
324,0.0,0.0, 1, 1,15,0.0, 1, 1,15
325,258218.433664755,0.0, 1, 1,15,8782.6319676306, 2,12,30
408,103312071.498399,0.0, 1, 1,15,166632.373384515, 1, 7,15
461,62089590.5345556,0.0, 1, 1,15,100144.500862186, 1, 7,15
4,120, 4
8,50145705.9338441,7056.14999069097, 1,15,15,23520.4999689699, 1, 1,15
9,30137101.1474377,4240.68027402972, 1,15,15,14135.6009134324, 1, 1,15
71,33223081.6930788,0.0, 1, 1,15,42054.5337887074, 1,19,15
93,19966761.9543503,0.0, 1, 1,15,25274.3822206965, 1,19,15
125,40372352.4371592,6007.79054124391, 1, 1,15,30038.9527062195, 1,19,15
137,24263406.9318686,3610.62603152807, 1, 1,15,18053.1301576404, 1,19,15
138,669337859.543224,0.0, 1, 1,15,1598676.56362355, 8,16,60
139,0.0,0.0, 1, 1,15,0.0, 1, 1,15
140,28.7698059826101,19.2229928571651,26, 6,60,44.3582718428492,10,18,45
141,28.3190239911604,21.3799102002938,27,11,45,36.4657642228721,10,23,45
142,28.3013298529435,19.9999999999999,26, 6,60,44.5404699694747,10,18,30
143,28.5355679177768,19.6114964285825,26, 6,60,44.440603478005,10,18,45
144,27.9933629078375,21.1322432713001,26,11,45,36.1921808179999,11,21,60
145,28.1561934494989,21.2581673460485,27,11,30,36.2768776272132,10,22,60
146,160306108.3513,8327.71580465396, 8,15,48,95351.0381231539,11,22,60
147,0.0,0.0, 1, 1,15,0.0, 1, 1,15
148,0.369587573636519,0.357079335405469,19,12,60,0.380991316970469, 2,18,52
149,94957419.9596605,2905.11347948311, 8,15,48,57312.1818243624,13, 2,60
150,0.0,0.0, 1, 1,15,0.0, 1, 1,15
151,0.369243218737686,0.356649744604178,19,12,60,0.377842487146587,11, 6,60
224,28.3013298529435,19.9999999999999,26, 6,60,44.5404699694747,10,18,30
225,27.7550736525032,8.84128649608481,18,17,22,57.7222183435922,25, 3,60
258,27.9933629078375,21.1322432713001,26,11,45,36.1921808179999,11,21,60
259,27.2283898682296,12.8544453035528,11,16,60,51.2366157081898,25, 2,15
260,3877807.24297879,0.0, 1, 1,15,97272.6972550456, 1, 7,30
291,0.0,0.0, 1, 1,15,0.0, 1, 1,15
322,3877807.24297891,0.0, 1, 1,15,97272.6972550478, 1, 7,30
323,0.0,0.0, 1, 1,15,0.0, 1, 1,15
324,0.0,0.0, 1, 1,15,0.0, 1, 1,15
325,0.0,0.0, 1, 1,15,0.0, 1, 1,15
408,99979424.0307085,0.0, 1, 1,15,166632.373384515, 1, 6,15
461,60086700.5173118,0.0, 1, 1,15,100144.500862186, 1, 6,15
4,151, 5
8,51378180.1322182,7056.14999069097, 1, 8,15,23520.4999689699, 1, 1,15
9,30877806.6353015,4240.68027402972, 1, 8,15,14135.6009134324, 1, 1,15
71,34673963.1087892,0.0, 1, 1,15,42054.5337887074, 1,19,15
93,20838728.1409643,0.0, 1, 1,15,25274.3822206965, 1,19,15
125,41886315.6535526,6007.79054124391, 1, 1,15,30038.9527062195, 1,18,15
137,25173284.6918137,3610.62603152807, 1, 1,15,18053.1301576404, 1,18,15
138,716807622.234953,0.0, 1, 1,15,1449805.48623635, 5,16,60
139,0.0,0.0, 1, 1,15,0.0, 1, 1,15
140,33.7695381394421,23.4618533516019,30, 6,60,48.2454552170829,25,18,60
141,33.2692914260815,25.9572346801931,30,11,30,41.1302195838784,25,24,15
142,33.2885029648984,23.2026598685313,30, 6,60,48.4222440373466,25,18,45
143,33.5290205521703,23.3322566100666,30, 6,60,48.326516108209,25,18,45
144,32.9440324071703,25.8432339854852,30,11,30,40.9327093676616,25,22,60
145,33.1066619166259,25.9002343328392,30,11,30,40.9913822488729,25,22,60
146,167934193.514887,7845.23565772199,31,14,50,100095.161873496, 8, 1,60
147,0.0,0.0, 1, 1,15,0.0, 1, 1,15
148,0.368570024681733,0.354937020608184,30,13,45,0.378067160640632,17,22, 7
149,99902998.3510771,1598.39655555817,21,19,52,61194.8633007851,17, 5,60
150,0.0,0.0, 1, 1,15,0.0, 1, 1,15
151,0.368185497397011,0.352415550931111,30,15,60,0.378977252631955, 6, 6,60
224,33.2885029648984,23.2026598685313,30, 6,60,48.4222440373466,25,18,45
225,30.9293212200553,9.52744678588988, 8,17,60,60.0651037250194,29, 4,30
258,32.9440324071703,25.8432339854852,30,11,30,40.9327093676616,25,22,60
259,30.4536053326838,15.3039766093145, 8,17, 5,52.8760063931773,28,15,30
260,0.0,0.0, 1, 1,15,0.0, 1, 1,15
291,0.0,0.0, 1, 1,15,0.0, 1, 1,15
322,0.0,0.0, 1, 1,15,0.0, 1, 1,15
323,0.0,0.0, 1, 1,15,0.0, 1, 1,15
324,0.0,0.0, 1, 1,15,0.0, 1, 1,15
325,0.0,0.0, 1, 1,15,0.0, 1, 1,15
408,103312071.498399,0.0, 1, 1,15,166632.373384515, 1, 6,15
461,62089590.5345556,0.0, 1, 1,15,100144.500862186, 1, 6,15
4,181, 6
8,49769377.9343406,7056.14999069097, 1, 8,15,23520.4999689699, 1, 1,15
9,29910931.5328227,4240.68027402972, 1, 8,15,14135.6009134324, 1, 1,15
71,33517463.4295998,0.0, 1, 1,15,42054.5337887074, 1,19,15
93,20143682.6298952,0.0, 1, 1,15,25274.3822206965, 1,19,15
125,40516539.4101489,6007.79054124391, 1, 1,15,30038.9527062195, 1,18,15
137,24350061.9566253,3610.62603152807, 1, 1,15,18053.1301576404, 1,18,15
138,695382500.301933,0.0, 1, 1,15,1413775.98049134, 1,17,15
139,0.0,0.0, 1, 1,15,0.0, 1, 1,15
140,38.9056292589077,30.1316639951384,15, 7,15,51.6315236738295, 9,19,15
141,38.284785039653,32.0235020883743,15,11,45,44.3290472819401, 9,23,60
142,38.4198821800842,29.8233862949019,15, 6,60,51.6894017762947, 9,19,15
143,38.6627557194959,29.9817395011105,15, 6,60,51.6604627250621, 9,19,15
144,37.9491931506959,31.8695952894797,15,11,45,44.0453178167445, 9,22,60
145,38.1169890951745,31.946548688927,15,11,45,44.1592925458033, 9,22,60
146,166652862.862298,7818.91599811732,15,16,33,84258.0758670502, 7,18,60
147,0.0,0.0, 1, 1,15,0.0, 1, 1,15
148,0.368141048968018,0.356431695982653,15,13,45,0.37764864811024,22,19,52
149,98483518.175954,2066.54562298587, 1,15,50,51795.972012032,12, 6,60
150,0.0,0.0, 1, 1,15,0.0, 1, 1,15
151,0.367606019988444,0.354532470108578,15,15,60,0.378392701239174,12, 3,37
224,38.4198821800842,29.8233862949019,15, 6,60,51.6894017762947, 9,19,15
225,32.528590059865,10.340569172465, 8,18, 7,61.088083683948,15, 6,60
258,37.9491931506959,31.8695952894797,15,11,45,44.0453178167445, 9,22,60
259,32.5023951298623,15.7990711482857, 8,17, 5,54.9380903783838,15, 5,60
260,0.0,0.0, 1, 1,15,0.0, 1, 1,15
291,0.0,0.0, 1, 1,15,0.0, 1, 1,15
322,0.0,0.0, 1, 1,15,0.0, 1, 1,15
323,0.0,0.0, 1, 1,15,0.0, 1, 1,15
324,0.0,0.0, 1, 1,15,0.0, 1, 1,15
325,0.0,0.0, 1, 1,15,0.0, 1, 1,15
408,99979424.0307085,0.0, 1, 1,15,166632.373384515, 1, 6,15
461,60086700.5173118,0.0, 1, 1,15,100144.500862186, 1, 6,15
4,212, 7
8,51754508.1317217,7056.14999069097, 1,15,15,23520.4999689699, 1, 1,15
9,31103976.2499164,4240.68027402972, 1,15,15,14135.6009134324, 1, 1,15
71,34379581.3722683,0.0, 1, 1,15,42054.5337887074, 1,19,15
93,20661807.4654194,0.0, 1, 1,15,25274.3822206965, 1,19,15
125,41742128.6805628,6007.79054124391, 1, 1,15,30038.9527062195, 1,19,15
137,25086629.667057,3610.62603152807, 1, 1,15,18053.1301576404, 1,19,15
138,569732718.960695,0.0, 1, 1,15,1247416.95257305, 6,16,60
139,0.0,0.0, 1, 1,15,0.0, 1, 1,15
140,27.3794572138661,24.2367734427927,18, 2,15,36.1270647043049, 1,14,15
141,26.0622978616131,24.5447342012707,17,22,15,36.5486834247652, 1, 1,15
142,25.9759140393124,23.9355127102905, 3,14,15,35.6191186184285, 1,13,60
143,26.6776856265892,24.1572077037152,17,21,60,35.7378479860811, 1,13,60
144,25.583067350415,23.9685963157654, 3,14,15,36.0761131989236, 1, 1,15
145,25.8226826060141,24.2757787146356,17,21,60,36.3123983118444, 1, 1,15
146,27722628.2007794,0.0, 1,14, 2,54539.2562516518, 1, 1,15
147,22858871.0685933,0.0, 1, 1,15,50842.4995577205,30,14,30
148,0.350785354164522,0.341485457192973,20,15,60,0.364278805750285, 1, 1,15
149,14792215.0713501,0.0, 1,14, 2,35940.0642703118, 1, 3,60
150,13598991.1596396,0.0, 1, 1,15,29741.1801635298,30,14,45
151,0.350325687118021,0.341478658759132,20,15,60,0.366109184376149, 1, 1,15
224,25.9759140393124,23.4112180416489,22,14, 3,35.6191186184285, 1,13,60
225,71.4553192487974,45.7844003235795, 1,13,60,90.3310145528774, 3, 5,60
258,25.583067350415,23.3943492148622, 1,14, 3,36.0761131989236, 1, 1,15
259,73.1643147999531,45.4309536134272, 1, 1,15,89.477957687481, 2,14, 3
260,0.0,0.0, 1, 1,15,0.0, 1, 1,15
291,579479495.541887,0.0, 1, 1,15,1616702.74959868, 1,14,45
322,4.765142462433273E-006,0.0, 1, 1,15,9.740688255988061E-008, 9,17,15
323,0.0,0.0, 1, 1,15,0.0, 1, 1,15
324,154130072.98011,0.0, 1, 1,15,1004250.51168042, 1,14,45
325,9.873387925422735E-007,0.0, 1, 1,15,5.003357728128322E-008, 1,15,15
408,103312071.498399,0.0, 1, 1,15,166632.373384515, 1, 6,15
461,62089590.5345556,0.0, 1, 1,15,100144.500862186, 1, 6,15
4,243, 8
8,51378180.1322182,7056.14999069097, 1, 8,15,23520.4999689699, 1, 1,15
9,30877806.6353015,4240.68027402972, 1, 8,15,14135.6009134324, 1, 1,15
71,34673963.1087892,0.0, 1, 1,15,42054.5337887074, 1,19,15
93,20838728.1409643,0.0, 1, 1,15,25274.3822206965, 1,19,15
125,41886315.6535526,6007.79054124391, 1, 1,15,30038.9527062195, 1,18,15
137,25173284.6918137,3610.62603152807, 1, 1,15,18053.1301576404, 1,18,15
138,646758777.315049,0.0, 1, 1,15,1408699.75823847,30,16,45
139,0.0,0.0, 1, 1,15,0.0, 1, 1,15
140,27.5331937517648,23.1935511845501,26, 7,15,32.0359012493926,30,17,30
141,25.9532410545863,24.4153406270125,26, 8,15,27.9259240655329, 7,14,15
142,25.9736712486589,22.9949314886359,26, 6,60,31.4922907124931, 7,13,60
143,26.7534325002118,23.0951354041468,26, 6,60,31.4001647003198, 7,13,60
144,25.468194699392,23.9331216571803,25,14,15,28.1844555032973, 7,13,60
145,25.7107178769892,24.3721771485471,25,21,60,28.0211531221368, 7,13,60
146,27769308.5058815,0.0, 1,14, 1,33343.3001750818,28, 6,60
147,24423460.3504479,0.0, 1, 1,15,52396.388626868, 7,15,60
148,0.350212569506164,0.33906922220698, 7,15,60,0.357825470482724,28, 6,60
149,14383072.38508,0.0, 1,13,30,21048.8183252842,28, 6,60
150,14676994.3194269,0.0, 1, 1,15,30945.8296409706, 7,15,60
151,0.349623321827584,0.339058205304127, 7,15,60,0.358588499499812,28, 6,60
224,25.9736712486589,22.9949314886359,26, 6,60,31.4922907124931, 7,13,60
225,70.1743060501267,46.4994771484853,30,13,60,90.5528617044095, 2, 5,60
258,25.468194699392,23.5549735770124,11,14, 3,28.1844555032973, 7,13,60
259,72.3083142105447,54.2478887061777,27,22,30,91.8933671385558, 2, 5,60
260,0.0,0.0, 1, 1,15,0.0, 1, 1,15
291,648927643.173146,0.0, 1, 1,15,1159147.08665339,30,17,30
322,7.818110941321772E-006,0.0, 1, 1,15,1.062062437995337E-007,12,16,60
323,0.0,0.0, 1, 1,15,0.0, 1, 1,15
324,155116850.335394,0.0, 1, 1,15,315977.863450764, 7,14, 1
325,9.141174397517739E-007,0.0, 1, 1,15,2.598881110316142E-008, 6,14,45
408,103312071.498399,0.0, 1, 1,15,166632.373384515, 1, 6,15
461,62089590.5345556,0.0, 1, 1,15,100144.500862186, 1, 6,15
4,273, 9
8,49957541.9340924,7056.14999069097, 1, 8,15,23520.4999689699, 1, 1,15
9,30024016.3401302,4240.68027402972, 1, 8,15,14135.6009134324, 1, 1,15
71,33370272.5613393,0.0, 1, 1,15,42054.5337887074, 1,19,15
93,20055222.2921227,0.0, 1, 1,15,25274.3822206965, 1,19,15
125,40444445.923654,6007.79054124391, 1, 1,15,30038.9527062195, 1,18,15
137,24306734.4442469,3610.62603152807, 1, 1,15,18053.1301576404, 1,18,15
138,606100663.032127,0.0, 1, 1,15,1528661.94189129,22,16,30
139,0.0,0.0, 1, 1,15,0.0, 1, 1,15
140,26.3249869648552,22.4982819382941,30, 7,30,32.0812515661739, 6,17,30
141,25.3354696041475,23.9489921827025,30, 8,60,26.6462102507181, 7,14,15
142,24.9000310636553,22.2510364352849,30, 7,30,29.5267625924352, 7,13,60
143,25.6125090142553,22.3746591867895,30, 7,30,29.5531537503286, 7,13,60
144,24.9208315494736,23.8454865120946,30, 7,60,26.833710728935, 7,13,60
145,25.1281505768106,23.9123415596113,30, 7,60,26.7092063719855, 7,13,60
146,48598101.8861945,0.0, 1,14, 1,49795.9089980772,15,24,60
147,2820569.91848996,0.0, 1, 1,15,25702.4235956299,20,18,60
148,0.353852172188839,0.34251675252399, 6,15,60,0.362073510823502,30,24,60
149,29044346.1194858,0.0, 1,14, 1,29723.5371627493,15,24,60
150,1620985.48093371,0.0, 1, 1,15,16789.6860346467,20,18,60
151,0.353883285062344,0.342523518046154, 6,15,60,0.36287770741795,30,24,60
224,24.9000310636553,22.2510364352849,30, 7,30,29.660026328088, 7,13,60
225,61.6825083138685,33.6850418070906,16,13,60,84.5886554813799, 9, 6,60
258,24.9208315494736,23.5951282436256, 7,14, 3,26.8531008574376, 7,13,60
259,61.4108339885285,36.9450656754336,16,22,30,83.1486839318105, 9, 6,60
260,0.0,0.0, 1, 1,15,0.0, 1, 1,15
291,500086586.383642,0.0, 1, 1,15,1173937.41098815, 6,17,30
322,1.061602930290723E-005,0.0, 1, 1,15,1.119360604207031E-007,19,17,15
323,0.0,0.0, 1, 1,15,0.0, 1, 1,15
324,94980942.2716577,0.0, 1, 1,15,200555.045260459, 7,14,45
325,1.779376334934089E-006,0.0, 1, 1,15,2.138449417543598E-008, 6,15,15
408,99979424.0307085,0.0, 1, 1,15,166632.373384515, 1, 6,15
461,60086700.5173118,0.0, 1, 1,15,100144.500862186, 1, 6,15
4,304,10
8,51566344.1319699,7056.14999069097, 1,15,15,23520.4999689699, 1, 1,15
9,30990891.442609,4240.68027402972, 1,15,15,14135.6009134324, 1, 1,15
71,34526772.2405287,0.0, 1, 1,15,42054.5337887074, 1,19,15
93,20750267.8031919,0.0, 1, 1,15,25274.3822206965, 1,19,15
125,41814222.1670577,6007.79054124391, 1, 1,15,30038.9527062195, 1,19,15
137,25129957.1794354,3610.62603152807, 1, 1,15,18053.1301576404, 1,19,15
138,574257901.779685,0.0, 1, 1,15,1436567.38695719,15,16,30
139,0.0,0.0, 1, 1,15,0.0, 1, 1,15
140,29.5111847405576,20.4020655457402,24, 7,30,41.3637587979255, 9,17,60
141,29.2792059218588,23.5087799062362,31,14,15,35.1403293940014, 9,23,30
142,29.1122016770754,20.0000000003613,24, 8,45,41.3074376600392, 9,18,15
143,29.3116932088165,20.2010327752106,24, 7,30,41.3238044455677, 9,18,15
144,29.0178541105007,23.1265716101603,31,14,15,34.9100661813903, 9,21,60
145,29.1485300161798,23.3176757581982,31,14,15,35.000095734676, 9,22,60
146,149362728.452767,8139.02334205429, 1,14, 5,93986.3613256517,15,24,60
147,0.0,0.0, 1, 1,15,0.0, 1, 1,15
148,0.36673567445017,0.35544382560049, 2,12,60,0.379347888344915,18,17,52
149,89477812.3704526,3330.07216105288,14,18,52,56724.703942741,15,24,60
150,0.0,0.0, 1, 1,15,0.0, 1, 1,15
151,0.366647129270013,0.354826934457524, 2,15,30,0.378655104035521,19, 3,22
224,29.1122016770754,20.0000000003613,24, 8,45,41.3177618419002, 9,18,15
225,33.3404871466616,9.91370886208536,16,17,15,62.0467384992916,28,24,30
258,29.0178541105007,23.1263105093042,31,14, 7,34.9100661813903, 9,21,60
259,32.7999073786942,14.5285430155472,19,16,10,54.9060363249807,28,24,30
260,32773.56589581,0.0, 1, 1,15,12013.443568148,24, 7,30
291,0.0,0.0, 1, 1,15,0.0, 1, 1,15
322,32773.5658958109,0.0, 1, 1,15,12013.4435681485,24, 7,30
323,0.0,0.0, 1, 1,15,0.0, 1, 1,15
324,0.0,0.0, 1, 1,15,0.0, 1, 1,15
325,0.0,0.0, 1, 1,15,0.0, 1, 1,15
408,103312071.498399,0.0, 1, 1,15,166632.373384515, 1, 6,15
461,62089590.5345556,0.0, 1, 1,15,100144.500862186, 1, 6,15
4,334,11
8,49769377.9343406,7056.14999069097, 1, 9,15,23520.4999689699, 1, 1,15
9,29910931.5328227,4240.68027402972, 1, 9,15,14135.6009134324, 1, 1,15
71,33517463.4295998,0.0, 1, 1,15,42054.5337887074, 1,20,15
93,20143682.6298952,0.0, 1, 1,15,25274.3822206965, 1,20,15
125,40516539.410149,6007.79054124391, 1, 1,15,30038.9527062195, 1,19,15
137,24350061.9566253,3610.62603152807, 1, 1,15,18053.1301576404, 1,19,15
138,435524677.242097,0.0, 1, 1,15,1210952.08762162, 5,15,60
139,0.0,0.0, 1, 1,15,0.0, 1, 1,15
140,22.3366033695829,17.5376514162943,27, 7,60,33.0381281677279, 6,17,15
141,22.5876359498452,19.6628074259219,27, 9,30,27.8315841264766, 6,24,15
142,22.4072114087468,19.9999999999998,27, 1,60,33.2007881074646, 6,17,15
143,22.3719073891648,18.7688257081471,27, 7,60,33.1194581375963, 6,17,15
144,22.3803161701019,20.,24,10,60,27.9332728780333, 7,22,60
145,22.4839760599736,19.8314037129609,27, 9,30,27.853146818836, 7,22,60
146,140416344.105743,6300.00655978008,18,14,52,81210.9811305334,30,24,60
147,0.0,0.0, 1, 1,15,0.0, 1, 1,15
148,0.368268764740798,0.35690120977435,14,12,60,0.381003627251253,23, 8,60
149,84385758.1939145,3297.17868553613,13,14,50,48254.4467512307,23, 7,60
150,0.0,0.0, 1, 1,15,0.0, 1, 1,15
151,0.368249428929963,0.355559891428708, 5,15,60,0.381013505915684,23, 8,60
224,22.4072114087468,19.9999999999998,27, 1,60,33.2007881074646, 6,17,15
225,33.1385947782111,12.7043182806815,27,16,60,61.0761223018653,19,11,15
258,22.3803161701019,20.,24,10,60,27.9332728780333, 7,22,60
259,32.7665100426191,15.274244536235,23,13,15,57.7372440108297,19,12,45
260,115945809.893225,0.0, 1, 1,15,291792.067264445,27, 6,60
291,0.0,0.0, 1, 1,15,0.0, 1, 1,15
322,115945809.893227,0.0, 1, 1,15,291792.067264453,27, 6,60
323,7656269.81718107,0.0, 1, 1,15,38841.0841501942,27, 6,60
324,0.0,0.0, 1, 1,15,0.0, 1, 1,15
325,7656273.86274596,0.0, 1, 1,15,38841.0841501962,27, 6,60
408,99979424.0307085,0.0, 1, 1,15,166632.373384515, 1, 7,15
461,60086700.5173118,0.0, 1, 1,15,100144.500862186, 1, 7,15
4,365,12
8,51754508.1317217,7056.14999069097, 1, 9,15,23520.4999689699, 1, 1,15
9,31103976.2499164,4240.68027402972, 1, 9,15,14135.6009134324, 1, 1,15
71,34379581.3722683,0.0, 1, 1,15,42054.5337887074, 1,20,15
93,20661807.4654194,0.0, 1, 1,15,25274.3822206965, 1,20,15
125,41742128.6805628,6007.79054124391, 1, 1,15,30038.9527062195, 1,19,15
137,25086629.667057,3610.62603152807, 1, 1,15,18053.1301576404, 1,19,15
138,453845299.669035,0.0, 1, 1,15,1219258.9555575,31,15,60
139,0.0,0.0, 1, 1,15,0.0, 1, 1,15
140,19.9445879125632,17.2125451501553,31, 6,60,25.9903211588036,29,17,15
141,20.3448696520349,19.5023187397355,31, 8,60,21.9539586779004,29,23,60
142,20.6551229675588,19.9999999999998,18, 5,60,26.05392796447,29,17,15
143,20.299855440061,18.6062725750776,31, 6,60,26.0221245616368,29,17,15
144,20.1937246948529,19.9999999999999,18, 9,45,21.8629918433785,29,22,60
145,20.2692971734439,19.7511593698677,31, 8,60,21.8813486781058,29,22,60
146,204111234.200762,12417.9955739655,29,15, 5,111565.081383205,31, 9,60
147,0.0,0.0, 1, 1,15,0.0, 1, 1,15
148,0.377177715665798,0.363187592507478,29,14,15,0.394517772213092,31,24,60
149,119767946.068569,6484.20479295736,29,15,60,66807.0588998161,31, 9,60
150,0.0,0.0, 1, 1,15,0.0, 1, 1,15
151,0.376595211747954,0.36171174277687,29,15,60,0.394513722481533,31,24,60
224,20.6551229675588,19.9999999999998,18, 5,60,26.05392796447,29,17,15
225,20.0115744832498,6.4874976079546,15,16,60,40.2840228089195,25, 4,30
258,20.1937246948529,19.9999999999999,18, 9,45,21.8629918433785,29,22,60
259,20.1694599834118,7.41237977604005,16,19,60,40.8758916475122,25, 4,15
260,340939122.270538,0.0, 1,14,15,375283.158739392,31, 6,60
291,0.0,0.0, 1, 1,15,0.0, 1, 1,15
322,340939122.270545,0.0, 1,14,15,375283.158739392,31, 6,60
323,48019522.4860603,0.0, 1,17,15,66067.6807273339,31, 6,60
324,0.0,0.0, 1, 1,15,0.0, 1, 1,15
325,48019527.3389534,0.0, 1,17,15,66067.6807273385,31, 6,60
408,103312071.498399,0.0, 1, 1,15,166632.373384515, 1, 7,15
461,62089590.5345556,0.0, 1, 1,15,100144.500862186, 1, 7,15
End of Data
 Number of Records Written=         384
