Program Version,EnergyPlus, Version 8.4.0-09f5359d8a, YMD=2023.08.02 14:39
1,5,Environment Title[],Latitude[deg],Longitude[deg],Time Zone[],Elevation[m]
2,6,Day of Simulation[],Month[],Day of Month[],DST Indicator[1=yes 0=no],Hour[],StartMinute[],EndMinute[],DayType
3,3,Cumulative Day of Simulation[],Month[],Day of Month[],DST Indicator[1=yes 0=no],DayType  ! When Daily Report Variables Requested
4,2,Cumulative Days of Simulation[],Month[]  ! When Monthly Report Variables Requested
5,1,Cumulative Days of Simulation[] ! When Run Period Report Variables Requested
8,9,PERIM,Zone People Total Heating Energy [J] !Monthly  [Value,Min,Day,Hour,Minute,Max,Day,Hour,Minute]
9,9,CORE,Zone People Total Heating Energy [J] !Monthly  [Value,Min,Day,Hour,Minute,Max,Day,Hour,Minute]
71,9,PERIM,Zone Lights Electric Energy [J] !Monthly  [Value,Min,Day,Hour,Minute,Max,Day,Hour,Minute]
93,9,CORE,Zone Lights Electric Energy [J] !Monthly  [Value,Min,Day,Hour,Minute,Max,Day,Hour,Minute]
125,9,PERIM,Zone Electric Equipment Electric Energy [J] !Monthly  [Value,Min,Day,Hour,Minute,Max,Day,Hour,Minute]
137,9,CORE,Zone Electric Equipment Electric Energy [J] !Monthly  [Value,Min,Day,Hour,Minute,Max,Day,Hour,Minute]
138,9,PERIM,Zone Windows Total Transmitted Solar Radiation Energy [J] !Monthly  [Value,Min,Day,Hour,Minute,Max,Day,Hour,Minute]
139,9,CORE,Zone Windows Total Transmitted Solar Radiation Energy [J] !Monthly  [Value,Min,Day,Hour,Minute,Max,Day,Hour,Minute]
140,9,PERIM,Zone Mean Radiant Temperature [C] !Monthly [Value,Min,Day,Hour,Minute,Max,Day,Hour,Minute]
141,9,CORE,Zone Mean Radiant Temperature [C] !Monthly [Value,Min,Day,Hour,Minute,Max,Day,Hour,Minute]
142,9,PERIM,Zone Mean Air Temperature [C] !Monthly [Value,Min,Day,Hour,Minute,Max,Day,Hour,Minute]
143,9,PERIM,Zone Operative Temperature [C] !Monthly [Value,Min,Day,Hour,Minute,Max,Day,Hour,Minute]
144,9,CORE,Zone Mean Air Temperature [C] !Monthly [Value,Min,Day,Hour,Minute,Max,Day,Hour,Minute]
145,9,CORE,Zone Operative Temperature [C] !Monthly [Value,Min,Day,Hour,Minute,Max,Day,Hour,Minute]
146,9,PERIM,Zone Infiltration Total Heat Loss Energy [J] !Monthly  [Value,Min,Day,Hour,Minute,Max,Day,Hour,Minute]
147,9,PERIM,Zone Infiltration Total Heat Gain Energy [J] !Monthly  [Value,Min,Day,Hour,Minute,Max,Day,Hour,Minute]
148,9,PERIM,Zone Infiltration Air Change Rate [ach] !Monthly [Value,Min,Day,Hour,Minute,Max,Day,Hour,Minute]
149,9,CORE,Zone Infiltration Total Heat Loss Energy [J] !Monthly  [Value,Min,Day,Hour,Minute,Max,Day,Hour,Minute]
150,9,CORE,Zone Infiltration Total Heat Gain Energy [J] !Monthly  [Value,Min,Day,Hour,Minute,Max,Day,Hour,Minute]
151,9,CORE,Zone Infiltration Air Change Rate [ach] !Monthly [Value,Min,Day,Hour,Minute,Max,Day,Hour,Minute]
224,9,PERIM,Zone Air Temperature [C] !Monthly [Value,Min,Day,Hour,Minute,Max,Day,Hour,Minute]
225,9,PERIM,Zone Air Relative Humidity [%] !Monthly [Value,Min,Day,Hour,Minute,Max,Day,Hour,Minute]
258,9,CORE,Zone Air Temperature [C] !Monthly [Value,Min,Day,Hour,Minute,Max,Day,Hour,Minute]
259,9,CORE,Zone Air Relative Humidity [%] !Monthly [Value,Min,Day,Hour,Minute,Max,Day,Hour,Minute]
260,9,PERIM IDEAL LOADS AIR,Zone Ideal Loads Supply Air Total Heating Energy [J] !Monthly  [Value,Min,Day,Hour,Minute,Max,Day,Hour,Minute]
291,9,PERIM IDEAL LOADS AIR,Zone Ideal Loads Supply Air Total Cooling Energy [J] !Monthly  [Value,Min,Day,Hour,Minute,Max,Day,Hour,Minute]
322,9,PERIM IDEAL LOADS AIR,Zone Ideal Loads Zone Total Heating Energy [J] !Monthly  [Value,Min,Day,Hour,Minute,Max,Day,Hour,Minute]
323,9,CORE IDEAL LOADS AIR,Zone Ideal Loads Supply Air Total Heating Energy [J] !Monthly  [Value,Min,Day,Hour,Minute,Max,Day,Hour,Minute]
324,9,CORE IDEAL LOADS AIR,Zone Ideal Loads Supply Air Total Cooling Energy [J] !Monthly  [Value,Min,Day,Hour,Minute,Max,Day,Hour,Minute]
325,9,CORE IDEAL LOADS AIR,Zone Ideal Loads Zone Total Heating Energy [J] !Monthly  [Value,Min,Day,Hour,Minute,Max,Day,Hour,Minute]
408,9,DHW PERIM,Water Use Equipment Heating Energy [J] !Monthly  [Value,Min,Day,Hour,Minute,Max,Day,Hour,Minute]
461,9,DHW CORE,Water Use Equipment Heating Energy [J] !Monthly  [Value,Min,Day,Hour,Minute,Max,Day,Hour,Minute]
End of Data Dictionary
1,ARCHSIM,  37.57, 126.97,   9.00,  87.10
4,31, 1
8,51566344.122766,7056.14998943162, 1,16,15,23520.4999647721, 1, 1,15
9,30990891.4327594,4240.68027268193, 1,16,15,14135.6009089398, 1, 1,15
71,34526772.2343665,0.0, 1, 1,15,42054.5337812017, 1,20,15
93,20750267.7965969,0.0, 1, 1,15,25274.3822126637, 1,20,15
125,41814222.1595951,6007.79054017166, 1, 1,15,30038.9527008583, 1,20,15
137,25129957.1714485,3610.62603038053, 1, 1,15,18053.1301519026, 1,20,15
138,480777316.181291,0.0, 1, 1,15,1410001.49478046,30,16,30
139,0.0,0.0, 1, 1,15,0.0, 1, 1,15
140,19.8964468206993,17.1699553450617,22, 8,45,26.9247822068514,30,17,45
141,20.3142562659667,19.4651487126898,22, 8,60,21.8889397802483, 6,23,60
142,20.6881825841432,19.9999999999998,23, 4,45,26.5963241736613,30,17,30
143,20.2923147024213,18.5849776725309,22, 8,45,26.7517805070731,30,17,45
144,20.1730822391679,19.9999999999999,15, 4,60,21.7415266160286, 6,22,45
145,20.2436692525673,19.7325743563448,22, 8,60,21.7913428078808, 6,22,60
146,221829176.765572,11271.0681046826, 6,14,35,110046.120091652,23, 6,60
147,0.0,0.0, 1, 1,15,0.0, 1, 1,15
148,0.379781446006325,0.362715301138167, 8,12,60,0.394321047651344,23, 6,60
149,130010451.234154,5212.82879294705, 6,15,50,66179.0461846807,23, 6,60
150,0.0,0.0, 1, 1,15,0.0, 1, 1,15
151,0.379126274170824,0.361745862540815, 6,15,60,0.39432018105555,23, 6,60
224,20.6881825841432,19.9999999999998,23, 4,45,26.5963241736613,30,17,30
225,17.4838636263367,5.47913709750015,16,16,60,35.4337338209666, 2,23,45
258,20.1730822391679,19.9999999999999,15, 4,60,21.7415266160286, 6,22,45
259,17.5693197103028,6.20829300533145,14,19,60,34.2593800339515, 2, 7,45
260,384908593.989636,0.0, 1,14,60,372025.694387038,22, 8,45
291,0.0,0.0, 1, 1,15,0.0, 1, 1,15
322,384908593.989644,0.0, 1,14,60,372025.694387038,22, 8,45
323,58401064.8857846,0.0, 1,20,15,67217.1396412254,22, 8,60
324,0.0,0.0, 1, 1,15,0.0, 1, 1,15
325,58401070.4629023,0.0, 1,20,15,67217.1396412293,22, 8,60
408,103312071.47996,0.0, 1, 1,15,166632.373354775, 1, 7,15
461,62089590.5148219,0.0, 1, 1,15,100144.500830358, 1, 7,15
4,59, 2
8,46551773.5302767,7056.14998943162, 1, 9,15,23520.4999647721, 1, 1,15
9,27977181.3189735,4240.68027268193, 1, 9,15,14135.6009089398, 1, 1,15
71,31204464.0656516,0.0, 1, 1,15,42054.5337812017, 1,20,15
93,18753591.6017964,0.0, 1, 1,15,25274.3822126637, 1,20,15
125,37776986.9165996,6007.79054017166, 1, 1,15,30038.9527008583, 1,19,15
137,22703616.4790327,3610.62603038053, 1, 1,15,18053.1301519026, 1,19,15
138,532074501.824473,0.0, 1, 1,15,1498996.59092464,26,16,30
139,0.0,0.0, 1, 1,15,0.0, 1, 1,15
140,21.4473699148376,17.4706448049865, 4, 7,30,32.1686918593917,24,18,15
141,21.3720981060502,19.550532589729, 4, 8,60,25.6494168371635,24,23,60
142,21.748863318729,19.9999999999998, 4, 1,45,32.2584081100329,24,17,60
143,21.5981166167833,18.7353224024933, 4, 7,30,32.1985555673288,24,17,60
144,21.087382749875,19.9999999999999, 5, 8,60,25.335137870443,24,22,60
145,21.2297404279626,19.7752662948645, 4, 8,60,25.4700491149622,24,23,60
146,185961150.374034,9317.33923561248,24,15, 3,101321.090474903, 8, 6,60
147,0.0,0.0, 1, 1,15,0.0, 1, 1,15
148,0.377265305051351,0.362278441807435,23,13,52,0.39056468588872, 8, 6,60
149,108018625.317833,4782.29385837134,24,15,33,60759.1852875857, 8, 6,60
150,0.0,0.0, 1, 1,15,0.0, 1, 1,15
151,0.376439747812323,0.360589945862088,23,15,60,0.390567455685142, 8, 6,60
224,21.748863318729,19.9999999999998, 4, 1,45,32.2584081100329,24,17,60
225,17.7338672464743,4.49647973531095, 9,17,30,37.9987389676757, 3,22,15
258,21.087382749875,19.9999999999999, 5, 8,60,25.335137870443,24,22,60
259,17.7232353396355,6.12611313288181, 9,17,60,38.3923155715059, 3,21,60
260,215118680.632282,0.0, 1,14,60,312729.657036618, 4, 7,30
291,0.0,0.0, 1, 1,15,0.0, 1, 1,15
322,215118680.632287,0.0, 1,14,60,312729.657036618, 4, 7,30
323,25901403.8620033,0.0, 1, 1,15,54600.8335244911,11, 8,60
324,0.0,0.0, 1, 1,15,0.0, 1, 1,15
325,25901406.5653131,0.0, 1, 1,15,54600.8335244932,11, 8,60
408,93314129.0786736,0.0, 1, 1,15,166632.373354775, 1, 7,15
461,56080920.4650004,0.0, 1, 1,15,100144.500830358, 1, 7,15
4,90, 3
8,51378180.1230478,7056.14998943162, 1, 9,15,23520.4999647721, 1, 1,15
9,30877806.6254879,4240.68027268193, 1, 9,15,14135.6009089398, 1, 1,15
71,34673963.1026007,0.0, 1, 1,15,42054.5337812017, 1,20,15
93,20838728.1343412,0.0, 1, 1,15,25274.3822126637, 1,20,15
125,41886315.6460771,6007.79054017166, 1, 1,15,30038.9527008583, 1,19,15
137,25173284.683813,3610.62603038053, 1, 1,15,18053.1301519026, 1,19,15
138,709198879.805197,0.0, 1, 1,15,1584788.01938296,15,16,60
139,0.0,0.0, 1, 1,15,0.0, 1, 1,15
140,24.6616643190094,18.2548582633488, 2, 7,30,37.033617431564,19,18,15
141,24.3029933461811,20.2251612386663, 9,13,15,29.6925775946193,19,24,15
142,24.2437012599706,19.9999999999999, 2, 5,60,37.0945040920124,19,18,15
143,24.45268278949,19.1274291316744, 2, 7,30,37.0640607617882,19,18,15
144,23.9075344076098,20., 2,11,45,29.4904493534248,19,23,45
145,24.1052638768955,20.1125806193332, 9,13,15,29.5855414107173,19,23,60
146,181347286.7517,9252.01860338702,30,14,50,88672.7667836725, 7,18,30
147,0.0,0.0, 1, 1,15,0.0, 1, 1,15
148,0.373100727944838,0.359604604829276,30,13,30,0.386923894149116, 7,18,15
149,107063257.148008,4191.75288864755,30,15,50,55817.3654366858, 6, 3,60
150,0.0,0.0, 1, 1,15,0.0, 1, 1,15
151,0.372707327628773,0.357960732973898,30,15,60,0.38556335969595, 8, 3,60
224,24.2437012599706,19.9999999999999, 2, 5,60,37.0945040920124,19,18,15
225,20.7391824635661,5.46656929358097, 7,17,37,36.8660087675382,27, 6,15
258,23.9075344076098,20., 2,11,45,29.4904493534248,19,23,45
259,20.4350165419679,7.86057972601031, 7,17,60,33.0516693892822,29, 6,60
260,35526545.0307054,0.0, 1, 1,15,202080.081068381, 2, 6,60
291,0.0,0.0, 1, 1,15,0.0, 1, 1,15
322,35526545.0307063,0.0, 1, 1,15,202080.081068386, 2, 6,60
323,412681.654256587,0.0, 1, 1,15,12492.0468083445, 2,12,15
324,0.0,0.0, 1, 1,15,0.0, 1, 1,15
325,412681.654256602,0.0, 1, 1,15,12492.0468083446, 2,12,15
408,103312071.47996,0.0, 1, 1,15,166632.373354775, 1, 7,15
461,62089590.5148219,0.0, 1, 1,15,100144.500830358, 1, 7,15
4,120, 4
8,50145705.9248938,7056.14998943162, 1,15,15,23520.4999647721, 1, 1,15
9,30137101.1378595,4240.68027268193, 1,15,15,14135.6009089398, 1, 1,15
71,33223081.6871493,0.0, 1, 1,15,42054.5337812017, 1,19,15
93,19966761.9480043,0.0, 1, 1,15,25274.3822126637, 1,19,15
125,40372352.4299538,6007.79054017166, 1, 1,15,30038.9527008583, 1,19,15
137,24263406.9241572,3610.62603038053, 1, 1,15,18053.1301519026, 1,19,15
138,669486650.166587,0.0, 1, 1,15,1593906.69040605, 8,16,60
139,0.0,0.0, 1, 1,15,0.0, 1, 1,15
140,28.7116476980328,19.1705202347374,26, 6,60,44.133480531718,10,18,45
141,28.2520209766744,21.3018701675704,27,11,45,36.333082643006,12,23,15
142,28.246787972236,19.9999999999999,26, 4,45,44.3204018703871,10,18,30
143,28.4792178351344,19.5852601173687,26, 6,60,44.2193971410985,10,18,45
144,27.9263150572644,21.0385553044423,26,11,45,36.0832335359737,11,21,60
145,28.0891680169694,21.1807434978181,27,11,30,36.1604455784747,11,22,60
146,160643134.180972,8209.34401648443, 8,15,48,96721.164900415,11,22,60
147,0.0,0.0, 1, 1,15,0.0, 1, 1,15
148,0.369624482697476,0.357210244557504,19,12,60,0.380838680953817, 2,18,52
149,95040030.4102848,1980.3485873461,19,19,52,57437.0464026912,13, 2,60
150,0.0,0.0, 1, 1,15,0.0, 1, 1,15
151,0.369264929472219,0.356790324734157,27,15,60,0.377755115936537,11, 6,60
224,28.246787972236,19.9999999999999,26, 4,45,44.3204018703871,10,18,30
225,27.8503067310883,8.85797940375413,18,17,22,58.0403710481149,25, 3,60
258,27.9263150572644,21.0385553044423,26,11,45,36.0832335359737,11,21,60
259,27.3259887118026,12.946539409325,11,16,60,51.5007596803861,25, 2,15
260,4384757.86051752,0.0, 1, 1,15,104367.813037361, 1, 7,30
291,0.0,0.0, 1, 1,15,0.0, 1, 1,15
322,4384757.86051766,0.0, 1, 1,15,104367.813037366, 1, 7,30
323,0.0,0.0, 1, 1,15,0.0, 1, 1,15
324,0.0,0.0, 1, 1,15,0.0, 1, 1,15
325,0.0,0.0, 1, 1,15,0.0, 1, 1,15
408,99979424.0128646,0.0, 1, 1,15,166632.373354775, 1, 6,15
461,60086700.4982147,0.0, 1, 1,15,100144.500830358, 1, 6,15
4,151, 5
8,51378180.1230478,7056.14998943162, 1, 8,15,23520.4999647721, 1, 1,15
9,30877806.6254879,4240.68027268193, 1, 8,15,14135.6009089398, 1, 1,15
71,34673963.1026007,0.0, 1, 1,15,42054.5337812017, 1,19,15
93,20838728.1343412,0.0, 1, 1,15,25274.3822126637, 1,19,15
125,41886315.6460771,6007.79054017166, 1, 1,15,30038.9527008583, 1,18,15
137,25173284.683813,3610.62603038053, 1, 1,15,18053.1301519026, 1,18,15
138,678481460.012371,0.0, 1, 1,15,1444342.98692671, 5,16,60
139,0.0,0.0, 1, 1,15,0.0, 1, 1,15
140,33.0419190046193,23.1702321105306,30, 6,60,47.1469465474166,25,18,30
141,32.6256113169844,25.618981425734,30,11,30,39.8235243286467,25,24,15
142,32.5838595616218,22.9247188051597,30, 6,60,47.3908692931859,25,18,30
143,32.8128892831205,23.0474754578452,30, 6,60,47.2689079203012,25,18,30
144,32.3196138963436,25.5129091717377,30, 9,45,39.67442538177,25,22,60
145,32.472612606664,25.5685719303077,30,11,30,39.7191491042702,25,22,60
146,161652177.004431,7181.11747728881,31,14,50,96894.5022881316, 8, 1,60
147,0.0,0.0, 1, 1,15,0.0, 1, 1,15
148,0.367830377962095,0.35465814367376,30,13,45,0.376954453239256, 5,19,20
149,96547184.5249573,36.8159276524329,11,19, 7,59916.9538805194,17, 5,60
150,0.0,0.0, 1, 1,15,0.0, 1, 1,15
151,0.367541865915112,0.352130355368195,30,15,60,0.37830027488216, 6, 6,60
224,32.5838595616218,22.9247188051597,30, 6,60,47.435836688137,25,18,30
225,31.8781872197951,9.81114991887351, 8,17,60,61.2864977605193,29, 4,30
258,32.3196138963436,25.5129091717377,30, 9,45,39.67442538177,25,22,60
259,31.3154052163721,15.750208337489, 8,17, 5,54.1676939778035,28,15,30
260,0.0,0.0, 1, 1,15,0.0, 1, 1,15
291,0.0,0.0, 1, 1,15,0.0, 1, 1,15
322,0.0,0.0, 1, 1,15,0.0, 1, 1,15
323,0.0,0.0, 1, 1,15,0.0, 1, 1,15
324,0.0,0.0, 1, 1,15,0.0, 1, 1,15
325,0.0,0.0, 1, 1,15,0.0, 1, 1,15
408,103312071.47996,0.0, 1, 1,15,166632.373354775, 1, 6,15
461,62089590.5148219,0.0, 1, 1,15,100144.500830358, 1, 6,15
4,181, 6
8,49769377.9254575,7056.14998943162, 1, 8,15,23520.4999647721, 1, 1,15
9,29910931.5233164,4240.68027268193, 1, 8,15,14135.6009089398, 1, 1,15
71,33517463.4236177,0.0, 1, 1,15,42054.5337812017, 1,19,15
93,20143682.623493,0.0, 1, 1,15,25274.3822126637, 1,19,15
125,40516539.402918,6007.79054017166, 1, 1,15,30038.9527008583, 1,18,15
137,24350061.9488863,3610.62603038053, 1, 1,15,18053.1301519026, 1,18,15
138,630872757.243457,0.0, 1, 1,15,1408216.3116259, 1,17,15
139,0.0,0.0, 1, 1,15,0.0, 1, 1,15
140,37.5641959377853,29.524040434697,15, 7,15,50.1053167521283, 9,18,30
141,37.0575307069957,31.3735062372071,15,11,45,42.7982636925357, 9,23,60
142,37.1190445838018,29.2456248788923,15, 6,60,50.3243851866642, 9,18,30
143,37.3416202607935,29.387295167,15, 6,60,50.2148509693962, 9,18,30
144,36.7582051449741,31.2454153189618,15,11,45,42.5597985414665, 9,22,60
145,36.9078679259849,31.3094607780845,15,11,45,42.6656186077151, 9,22,60
146,156291290.707221,7104.51016201341, 1,15,50,78868.5733143459, 1, 4,45
147,0.0,0.0, 1, 1,15,0.0, 1, 1,15
148,0.366701845199234,0.355857489090996,15,13,45,0.376210892694084, 7,18,35
149,92949906.3993775,1600.18792056908, 1,15,50,49807.4726058401, 8, 4,15
150,0.0,0.0, 1, 1,15,0.0, 1, 1,15
151,0.366294785081704,0.353927821873047,15,15,60,0.3768588316068,12, 3,37
224,37.1190445838018,29.2456248788923,15, 6,60,50.3846163003653, 9,18,30
225,34.6072165558492,10.7683871466168, 8,18, 7,62.7491461956515,15, 6,60
258,36.7582051449741,31.2454153189618,15,11,45,42.5597985414665, 9,22,60
259,34.4994122931248,16.5989915785931, 8,16,60,56.8412683475312,14, 5,60
260,0.0,0.0, 1, 1,15,0.0, 1, 1,15
291,0.0,0.0, 1, 1,15,0.0, 1, 1,15
322,0.0,0.0, 1, 1,15,0.0, 1, 1,15
323,0.0,0.0, 1, 1,15,0.0, 1, 1,15
324,0.0,0.0, 1, 1,15,0.0, 1, 1,15
325,0.0,0.0, 1, 1,15,0.0, 1, 1,15
408,99979424.0128646,0.0, 1, 1,15,166632.373354775, 1, 6,15
461,60086700.4982147,0.0, 1, 1,15,100144.500830358, 1, 6,15
4,212, 7
8,51754508.1224842,7056.14998943162, 1,15,15,23520.4999647721, 1, 1,15
9,31103976.2400309,4240.68027268193, 1,15,15,14135.6009089398, 1, 1,15
71,34379581.3661323,0.0, 1, 1,15,42054.5337812017, 1,19,15
93,20661807.4588526,0.0, 1, 1,15,25274.3822126637, 1,19,15
125,41742128.673113,6007.79054017166, 1, 1,15,30038.9527008583, 1,19,15
137,25086629.6590839,3610.62603038053, 1, 1,15,18053.1301519026, 1,19,15
138,532790432.513706,0.0, 1, 1,15,1241520.28367328, 6,16,60
139,0.0,0.0, 1, 1,15,0.0, 1, 1,15
140,27.1778752535071,24.1963380492342,18, 2,15,35.1960643588957, 1,14,15
141,25.9575856383439,24.5280618548752,17,22,15,35.3941633035116, 1, 1,15
142,25.8545998136805,23.9386037228634, 3,14,15,34.7282421233926, 1,13,60
143,26.5162375335938,24.1408831077861,17,21,60,34.825161860388, 1,13,60
144,25.5058805940509,23.9649299017502,17,14,15,34.9613416749926, 1, 1,15
145,25.7317331161973,24.2671804697796,17,21,60,35.1777524892521, 1, 1,15
146,27016427.3128453,0.0, 1,14, 2,50517.2202794967, 1, 1,15
147,22622172.645081,0.0, 1, 1,15,50621.240314883,30,14,30
148,0.350737636276522,0.341575488644961,20,15,60,0.362973425366593, 1, 1,60
149,14606689.0466886,0.0, 1,14, 2,33756.0068395365, 1, 3,60
150,13434766.4024263,0.0, 1, 1,15,29556.4368452931,31,15,60
151,0.350329382398576,0.341568534407209,20,15,60,0.364911331321073, 1, 3,60
224,25.8545998136805,23.3650205290135, 2,14, 5,34.7282421233926, 1,13,60
225,71.9152915076947,47.7195315334831, 1,13,60,90.8549546808237, 2,14, 3
258,25.5058805940509,23.2132446150146, 1,14, 3,34.9613416749926, 1, 1,15
259,73.4658123315325,48.1283590607334, 1, 1,15,89.8406614401614, 2,14, 3
260,0.0,0.0, 1, 1,15,0.0, 1, 1,15
291,546700218.521518,0.0, 1, 1,15,1468860.24816715, 1,14,45
322,3.933830715719854E-006,0.0, 1, 1,15,1.209400579682551E-007, 7,18,15
323,0.0,0.0, 1, 1,15,0.0, 1, 1,15
324,147296621.095839,0.0, 1, 1,15,893387.29345693, 1,14,45
325,9.976389169320431E-007,0.0, 1, 1,15,6.773461791453883E-008, 1,14,60
408,103312071.47996,0.0, 1, 1,15,166632.373354775, 1, 6,15
461,62089590.5148219,0.0, 1, 1,15,100144.500830358, 1, 6,15
4,243, 8
8,51378180.1230478,7056.14998943162, 1, 8,15,23520.4999647721, 1, 1,15
9,30877806.6254879,4240.68027268193, 1, 8,15,14135.6009089398, 1, 1,15
71,34673963.1026007,0.0, 1, 1,15,42054.5337812017, 1,19,15
93,20838728.1343412,0.0, 1, 1,15,25274.3822126637, 1,19,15
125,41886315.6460771,6007.79054017166, 1, 1,15,30038.9527008583, 1,18,15
137,25173284.683813,3610.62603038053, 1, 1,15,18053.1301519026, 1,18,15
138,641174780.790819,0.0, 1, 1,15,1403505.27473998,30,16,45
139,0.0,0.0, 1, 1,15,0.0, 1, 1,15
140,27.4882861275646,23.1577278671198,26, 7,15,32.0090495365716,30,17,30
141,25.932654927746,24.3940600806752,26, 8,15,27.8064774696264, 7,14,15
142,25.942097101674,22.9590313760304,26, 6,60,31.3044028464748, 7,13,60
143,26.7151916146193,23.0591431043809,26, 7,15,31.2068231373152, 7,13,60
144,25.45344608948,23.9228280076541,25,14,15,28.06830753481, 7,13,60
145,25.693050508613,24.3669453292506,25,21,60,27.9039605734964, 7,13,60
146,27920853.8687248,0.0, 1,14, 1,33658.1504323232,28, 6,60
147,24210388.2014189,0.0, 1, 1,15,52135.000948769, 7,15,60
148,0.350270491374924,0.339157641151477, 7,15,60,0.357952013630158,28, 6,60
149,14549652.938077,0.0, 1,13,30,21205.5685222494,28, 6,60
150,14527223.948075,0.0, 1, 1,15,30808.7885501044, 7,15,60
151,0.349700568970433,0.339147034437059, 7,15,60,0.358700540380229,28, 6,60
224,25.942097101674,22.9590313760304,26, 6,60,31.3044028464748, 7,13,60
225,70.3030136779386,46.545708335585,30,13,60,91.00693689237, 2, 5,60
258,25.45344608948,23.5492900475397,25,14, 5,28.06830753481, 7,13,60
259,72.3795969908778,54.2138898307021,27,22,30,92.1925948764792, 2, 5,60
260,0.0,0.0, 1, 1,15,0.0, 1, 1,15
291,643149188.959764,0.0, 1, 1,15,1154253.58389152,30,17,30
322,6.519889394434647E-006,0.0, 1, 1,15,1.323996912105940E-007, 5,16,60
323,0.0,0.0, 1, 1,15,0.0, 1, 1,15
324,153225905.453732,0.0, 1, 1,15,308842.054483079, 7,14, 1
325,1.024513056901700E-006,0.0, 1, 1,15,3.514628588163760E-008, 6,14,45
408,103312071.47996,0.0, 1, 1,15,166632.373354775, 1, 6,15
461,62089590.5148219,0.0, 1, 1,15,100144.500830358, 1, 6,15
4,273, 9
8,49957541.9251756,7056.14998943162, 1, 8,15,23520.4999647721, 1, 1,15
9,30024016.3305879,4240.68027268193, 1, 8,15,14135.6009089398, 1, 1,15
71,33370272.5553835,0.0, 1, 1,15,42054.5337812017, 1,19,15
93,20055222.2857486,0.0, 1, 1,15,25274.3822126637, 1,19,15
125,40444445.9164359,6007.79054017166, 1, 1,15,30038.9527008583, 1,18,15
137,24306734.4365217,3610.62603038053, 1, 1,15,18053.1301519026, 1,18,15
138,601882193.530851,0.0, 1, 1,15,1523999.54701102,22,16,30
139,0.0,0.0, 1, 1,15,0.0, 1, 1,15
140,26.2997657000329,22.4682214214822,30, 7,30,32.034589662635, 6,17,30
141,25.3249730012834,23.9269120879853,30, 8,60,26.6376150717237, 7,14,15
142,24.8835949576434,22.2184957835697,30, 7,30,29.4546086716222, 7,13,60
143,25.5916803288381,22.343358602526,30, 7,30,29.4776866153648, 7,13,60
144,24.9133218920376,23.8226334086392,30, 7,60,26.8251767722662, 7,13,60
145,25.1191474466605,23.8905773972806,30, 7,60,26.7013303443274, 7,13,60
146,49041984.5887169,0.0, 1,14, 1,49990.1142449662,15,24,60
147,2745130.49128367,0.0, 1, 1,15,25518.2186743741,20,18,60
148,0.353929468086874,0.342607942940537, 6,15,60,0.362138390711281,30,24,60
149,29346167.9643059,0.0, 1,14, 1,29838.2612874372,15,24,60
150,1572726.48668539,0.0, 1, 1,15,16678.3711058418,20,18,60
151,0.353971177892227,0.342614716087639, 6,15,60,0.36295691651694,30,24,60
224,24.8835949576434,22.2184957835697,30, 7,30,29.5856736217671, 7,13,60
225,61.7424081687453,33.8162330906847,16,13,60,84.6945277422221,29, 5,60
258,24.9133218920376,23.6102914006225, 1,14, 3,26.8441153201667, 7,13,60
259,61.4384630281861,36.9442451677436,16,22,30,83.1454552581264, 9, 6,60
260,0.0,0.0, 1, 1,15,0.0, 1, 1,15
291,495868527.166782,0.0, 1, 1,15,1165465.11675418, 6,17,30
322,1.106596718596249E-005,0.0, 1, 1,15,1.344460542895831E-007, 8,15,45
323,0.0,0.0, 1, 1,15,0.0, 1, 1,15
324,93788425.74421,0.0, 1, 1,15,199723.981867765, 7,14,45
325,1.789037959219698E-006,0.0, 1, 1,15,1.776498947947403E-008, 5,16,15
408,99979424.0128646,0.0, 1, 1,15,166632.373354775, 1, 6,15
461,60086700.4982147,0.0, 1, 1,15,100144.500830358, 1, 6,15
4,304,10
8,51566344.122766,7056.14998943162, 1,15,15,23520.4999647721, 1, 1,15
9,30990891.4327594,4240.68027268193, 1,15,15,14135.6009089398, 1, 1,15
71,34526772.2343665,0.0, 1, 1,15,42054.5337812017, 1,19,15
93,20750267.7965969,0.0, 1, 1,15,25274.3822126637, 1,19,15
125,41814222.1595951,6007.79054017166, 1, 1,15,30038.9527008583, 1,19,15
137,25129957.1714485,3610.62603038053, 1, 1,15,18053.1301519026, 1,19,15
138,568088751.092934,0.0, 1, 1,15,1432444.18531065,15,16,30
139,0.0,0.0, 1, 1,15,0.0, 1, 1,15
140,29.354144332687,20.3062223244063,24, 7,30,41.1435503515134, 9,17,60
141,29.1339038371034,23.3606191630379,31,14,15,34.9652253525062, 9,23,30
142,28.9598584805074,20.,24, 8,15,41.0960138740079, 9,18,15
143,29.1570014065972,20.1531111623679,24, 7,30,41.1090907813986, 9,18,15
144,28.8754704963209,22.9814625573758,31,14,15,34.7394529188391, 9,21,60
145,29.0046871667122,23.1710408602069,31,14,15,34.8271687508844, 9,22,60
146,148538492.793636,8112.77760819338, 1,14, 5,93668.4041117497,15,24,60
147,0.0,0.0, 1, 1,15,0.0, 1, 1,15
148,0.366654681981961,0.355393998137566, 2,12,60,0.379218479457291,18,17,52
149,89016599.2696444,3237.30276156519,14,18,52,56502.5193184325,15,24,60
150,0.0,0.0, 1, 1,15,0.0, 1, 1,15
151,0.366578059757264,0.354812887601644, 2,15,30,0.378577446705265,19, 3,22
224,28.9598584805074,20.,24, 8,15,41.1064711355936, 9,18,15
225,33.5663046765944,10.0080825615657,16,17,15,62.3972797831563,28,24,30
258,28.8754704963209,22.9813597538945,31,14, 7,34.7394529188391, 9,21,60
259,33.0078940366563,14.6197788016847,19,16,22,55.2250369435715,28,24,30
260,123925.718358434,0.0, 1, 1,15,22208.5309778868,24, 7,30
291,0.0,0.0, 1, 1,15,0.0, 1, 1,15
322,123925.718358437,0.0, 1, 1,15,22208.5309778875,24, 7,30
323,0.0,0.0, 1, 1,15,0.0, 1, 1,15
324,0.0,0.0, 1, 1,15,0.0, 1, 1,15
325,0.0,0.0, 1, 1,15,0.0, 1, 1,15
408,103312071.47996,0.0, 1, 1,15,166632.373354775, 1, 6,15
461,62089590.5148219,0.0, 1, 1,15,100144.500830358, 1, 6,15
4,334,11
8,49769377.9254574,7056.14998943162, 1, 9,15,23520.4999647721, 1, 1,15
9,29910931.5233164,4240.68027268193, 1, 9,15,14135.6009089398, 1, 1,15
71,33517463.4236177,0.0, 1, 1,15,42054.5337812017, 1,20,15
93,20143682.623493,0.0, 1, 1,15,25274.3822126637, 1,20,15
125,40516539.402918,6007.79054017166, 1, 1,15,30038.9527008583, 1,19,15
137,24350061.9488863,3610.62603038053, 1, 1,15,18053.1301519026, 1,19,15
138,430679537.297867,0.0, 1, 1,15,1206812.08977455, 5,15,60
139,0.0,0.0, 1, 1,15,0.0, 1, 1,15
140,22.2461270797785,17.5278294758177,27, 7,60,32.8621353120939, 6,17,15
141,22.5055208879705,19.656153068592,27, 9,30,27.6861509950268, 6,24,15
142,22.3323926691629,19.9999999999998,27, 6,15,33.0293103307329, 6,17,15
143,22.2892598744707,18.7639147379089,27, 7,60,32.9457228214134, 6,17,15
144,22.3026740121585,19.9999999999999,24, 4,60,27.7914966941114, 7,22,60
145,22.4040974500645,19.828076534296,27, 9,30,27.7090460942737, 7,22,60
146,140374027.70352,6255.1345027835,18,14,52,81517.073818967,30,24,60
147,0.0,0.0, 1, 1,15,0.0, 1, 1,15
148,0.368282992177347,0.356911662082741,14,12,60,0.381117850092311,23, 8,60
149,84334543.646205,3342.10034904123,13,14,50,48393.613757724,23, 7,60
150,0.0,0.0, 1, 1,15,0.0, 1, 1,15
151,0.368259862618612,0.355475868471824, 5,15,60,0.381127920619538,23, 8,60
224,22.3323926691629,19.9999999999998,27, 6,15,33.0293103307329, 6,17,15
225,33.2620549707846,12.749329170927,27,16,60,61.3364545977169,19,11,15
258,22.3026740121585,19.9999999999999,24, 4,60,27.7914966941114, 7,22,60
259,32.8934379078928,15.2817315074994,23,13,15,57.9639708674299,19,12,45
260,119345244.818162,0.0, 1, 1,15,293357.469473024,27, 6,60
291,0.0,0.0, 1, 1,15,0.0, 1, 1,15
322,119345244.818165,0.0, 1, 1,15,293357.469473045,27, 6,60
323,8203630.70532105,0.0, 1, 1,15,39378.7412943167,27, 6,60
324,0.0,0.0, 1, 1,15,0.0, 1, 1,15
325,8203635.08235922,0.0, 1, 1,15,39378.7412943188,27, 6,60
408,99979424.0128646,0.0, 1, 1,15,166632.373354775, 1, 7,15
461,60086700.4982147,0.0, 1, 1,15,100144.500830358, 1, 7,15
4,365,12
8,51754508.1224842,7056.14998943162, 1, 9,15,23520.4999647721, 1, 1,15
9,31103976.2400309,4240.68027268193, 1, 9,15,14135.6009089398, 1, 1,15
71,34379581.3661323,0.0, 1, 1,15,42054.5337812017, 1,20,15
93,20661807.4588526,0.0, 1, 1,15,25274.3822126637, 1,20,15
125,41742128.673113,6007.79054017166, 1, 1,15,30038.9527008583, 1,19,15
137,25086629.6590839,3610.62603038053, 1, 1,15,18053.1301519026, 1,19,15
138,449385333.301639,0.0, 1, 1,15,1215733.43698099,31,15,60
139,0.0,0.0, 1, 1,15,0.0, 1, 1,15
140,19.9064874094993,17.2033755123482,31, 6,60,25.9248962564666,29,17,15
141,20.3251681452517,19.4979643664257,31, 8,60,21.9143590503345,29,23,60
142,20.6356704622676,19.9999999999998,18, 6,30,26.0257689251125,29,17,15
143,20.2710789358835,18.6016877561741,31, 6,60,25.9753325907895,29,17,15
144,20.1827663837929,19.9999999999999,17, 4,45,21.8215535538647,29,22,60
145,20.2539672645223,19.7489821832128,31, 8,60,21.8412643021938,29,22,60
146,204678054.965631,12426.7033861858,29,15, 5,111853.726360041,31, 9,60
147,0.0,0.0, 1, 1,15,0.0, 1, 1,15
148,0.377264828946862,0.363238029502353,29,14,15,0.394640444553466,31,24,60
149,120157420.284528,6514.40005793122,29,15,60,66976.4926809243,31, 9,60
150,0.0,0.0, 1, 1,15,0.0, 1, 1,15
151,0.376692901040711,0.361777245729981,29,15,60,0.394636320184131,31,24,60
224,20.6356704622676,19.9999999999998,18, 6,30,26.0257689251125,29,17,15
225,20.021515537678,6.4895744784387,15,16,60,40.2727263261637,25, 4,30
258,20.1827663837929,19.9999999999999,17, 4,45,21.8215535538647,29,22,60
259,20.1762547680415,7.41480868010443,16,19,60,40.868903421591,25, 4,15
260,346258463.672606,0.0, 1,14,22,376783.27265649,31, 6,60
291,0.0,0.0, 1, 1,15,0.0, 1, 1,15
322,346258463.672613,0.0, 1,14,22,376783.27265649,31, 6,60
323,49441755.7909752,0.0, 1,17,15,66518.0528844564,31, 6,60
324,0.0,0.0, 1, 1,15,0.0, 1, 1,15
325,49441760.9733216,0.0, 1,17,15,66518.0528844584,31, 6,60
408,103312071.47996,0.0, 1, 1,15,166632.373354775, 1, 7,15
461,62089590.5148219,0.0, 1, 1,15,100144.500830358, 1, 7,15
End of Data
 Number of Records Written=         384
