Program Version,EnergyPlus, Version 8.4.0-09f5359d8a, YMD=2023.08.02 14:39
1,5,Environment Title[],Latitude[deg],Longitude[deg],Time Zone[],Elevation[m]
2,6,Day of Simulation[],Month[],Day of Month[],DST Indicator[1=yes 0=no],Hour[],StartMinute[],EndMinute[],DayType
3,3,Cumulative Day of Simulation[],Month[],Day of Month[],DST Indicator[1=yes 0=no],DayType  ! When Daily Report Variables Requested
4,2,Cumulative Days of Simulation[],Month[]  ! When Monthly Report Variables Requested
5,1,Cumulative Days of Simulation[] ! When Run Period Report Variables Requested
8,9,PERIM,Zone People Total Heating Energy [J] !Monthly  [Value,Min,Day,Hour,Minute,Max,Day,Hour,Minute]
9,9,CORE,Zone People Total Heating Energy [J] !Monthly  [Value,Min,Day,Hour,Minute,Max,Day,Hour,Minute]
71,9,PERIM,Zone Lights Electric Energy [J] !Monthly  [Value,Min,Day,Hour,Minute,Max,Day,Hour,Minute]
93,9,CORE,Zone Lights Electric Energy [J] !Monthly  [Value,Min,Day,Hour,Minute,Max,Day,Hour,Minute]
125,9,PERIM,Zone Electric Equipment Electric Energy [J] !Monthly  [Value,Min,Day,Hour,Minute,Max,Day,Hour,Minute]
137,9,CORE,Zone Electric Equipment Electric Energy [J] !Monthly  [Value,Min,Day,Hour,Minute,Max,Day,Hour,Minute]
138,9,PERIM,Zone Windows Total Transmitted Solar Radiation Energy [J] !Monthly  [Value,Min,Day,Hour,Minute,Max,Day,Hour,Minute]
139,9,CORE,Zone Windows Total Transmitted Solar Radiation Energy [J] !Monthly  [Value,Min,Day,Hour,Minute,Max,Day,Hour,Minute]
140,9,PERIM,Zone Mean Radiant Temperature [C] !Monthly [Value,Min,Day,Hour,Minute,Max,Day,Hour,Minute]
141,9,CORE,Zone Mean Radiant Temperature [C] !Monthly [Value,Min,Day,Hour,Minute,Max,Day,Hour,Minute]
142,9,PERIM,Zone Mean Air Temperature [C] !Monthly [Value,Min,Day,Hour,Minute,Max,Day,Hour,Minute]
143,9,PERIM,Zone Operative Temperature [C] !Monthly [Value,Min,Day,Hour,Minute,Max,Day,Hour,Minute]
144,9,CORE,Zone Mean Air Temperature [C] !Monthly [Value,Min,Day,Hour,Minute,Max,Day,Hour,Minute]
145,9,CORE,Zone Operative Temperature [C] !Monthly [Value,Min,Day,Hour,Minute,Max,Day,Hour,Minute]
146,9,PERIM,Zone Infiltration Total Heat Loss Energy [J] !Monthly  [Value,Min,Day,Hour,Minute,Max,Day,Hour,Minute]
147,9,PERIM,Zone Infiltration Total Heat Gain Energy [J] !Monthly  [Value,Min,Day,Hour,Minute,Max,Day,Hour,Minute]
148,9,PERIM,Zone Infiltration Air Change Rate [ach] !Monthly [Value,Min,Day,Hour,Minute,Max,Day,Hour,Minute]
149,9,CORE,Zone Infiltration Total Heat Loss Energy [J] !Monthly  [Value,Min,Day,Hour,Minute,Max,Day,Hour,Minute]
150,9,CORE,Zone Infiltration Total Heat Gain Energy [J] !Monthly  [Value,Min,Day,Hour,Minute,Max,Day,Hour,Minute]
151,9,CORE,Zone Infiltration Air Change Rate [ach] !Monthly [Value,Min,Day,Hour,Minute,Max,Day,Hour,Minute]
224,9,PERIM,Zone Air Temperature [C] !Monthly [Value,Min,Day,Hour,Minute,Max,Day,Hour,Minute]
225,9,PERIM,Zone Air Relative Humidity [%] !Monthly [Value,Min,Day,Hour,Minute,Max,Day,Hour,Minute]
258,9,CORE,Zone Air Temperature [C] !Monthly [Value,Min,Day,Hour,Minute,Max,Day,Hour,Minute]
259,9,CORE,Zone Air Relative Humidity [%] !Monthly [Value,Min,Day,Hour,Minute,Max,Day,Hour,Minute]
260,9,PERIM IDEAL LOADS AIR,Zone Ideal Loads Supply Air Total Heating Energy [J] !Monthly  [Value,Min,Day,Hour,Minute,Max,Day,Hour,Minute]
291,9,PERIM IDEAL LOADS AIR,Zone Ideal Loads Supply Air Total Cooling Energy [J] !Monthly  [Value,Min,Day,Hour,Minute,Max,Day,Hour,Minute]
322,9,PERIM IDEAL LOADS AIR,Zone Ideal Loads Zone Total Heating Energy [J] !Monthly  [Value,Min,Day,Hour,Minute,Max,Day,Hour,Minute]
323,9,CORE IDEAL LOADS AIR,Zone Ideal Loads Supply Air Total Heating Energy [J] !Monthly  [Value,Min,Day,Hour,Minute,Max,Day,Hour,Minute]
324,9,CORE IDEAL LOADS AIR,Zone Ideal Loads Supply Air Total Cooling Energy [J] !Monthly  [Value,Min,Day,Hour,Minute,Max,Day,Hour,Minute]
325,9,CORE IDEAL LOADS AIR,Zone Ideal Loads Zone Total Heating Energy [J] !Monthly  [Value,Min,Day,Hour,Minute,Max,Day,Hour,Minute]
408,9,DHW PERIM,Water Use Equipment Heating Energy [J] !Monthly  [Value,Min,Day,Hour,Minute,Max,Day,Hour,Minute]
461,9,DHW CORE,Water Use Equipment Heating Energy [J] !Monthly  [Value,Min,Day,Hour,Minute,Max,Day,Hour,Minute]
End of Data Dictionary
1,ARCHSIM,  37.57, 126.97,   9.00,  87.10
4,31, 1
8,51566344.1194569,7056.14998897868, 1,16,15,23520.4999632623, 1, 1,15
9,30990891.4465888,4240.68027457431, 1,16,15,14135.6009152477, 1, 1,15
71,34526772.2321502,0.0, 1, 1,15,42054.5337785021, 1,20,15
93,20750267.8058566,0.0, 1, 1,15,25274.3822239423, 1,20,15
125,41814222.156911,6007.79053978602, 1, 1,15,30038.9526989301, 1,20,15
137,25129957.1826626,3610.62603199175, 1, 1,15,18053.1301599588, 1,20,15
138,382114050.331058,0.0, 1, 1,15,1165665.62123214,30, 9,60
139,0.0,0.0, 1, 1,15,0.0, 1, 1,15
140,19.157753692038,17.0933750072286,23, 7,60,23.4591618537092,27,11,30
141,20.0142007712401,19.4422843466153,14, 8,60,20.7087326980932, 8,16,60
142,20.1732447704781,19.9999999999998,15, 1,15,22.863047945293,27,11,30
143,19.6654992312581,18.5466875036143,23, 7,60,23.1611048995011,27,11,30
144,20.0283947154626,19.9999999999999,14, 8,60,20.840968456432, 8,20,45
145,20.0212977433513,19.7211421733076,14, 8,60,20.7462408224142, 8,20,60
146,216194804.061231,25562.6741326435, 8,10, 7,110125.708236169,23, 6,60
147,0.0,0.0, 1, 1,15,0.0, 1, 1,15
148,0.379210496793272,0.362729993595345, 6,15,60,0.394414525067381,23, 6,60
149,129364043.317314,14142.2014846724, 8,10,37,66291.1537480403,23, 6,60
150,0.0,0.0, 1, 1,15,0.0, 1, 1,15
151,0.379022919436197,0.36194397101083, 6,15,60,0.394412320418342,23, 6,60
224,20.1732447704781,19.9999999999998,15, 1,15,22.863047945293,27,11,30
225,17.3647860840684,6.49218495375927,14,19,60,34.9965226125124, 2,22,45
258,20.0283947154626,19.9999999999999,14, 8,60,20.840968456432, 8,20,45
259,17.6179910519398,6.16250695490511,14,19,60,35.1059799106801, 2,22,45
260,448479692.233807,0.0, 1,10,15,392761.96958067,23, 6,60
291,0.0,0.0, 1, 1,15,0.0, 1, 1,15
322,448479692.233816,0.0, 1,10,15,392761.969580671,23, 6,60
323,78515342.3674481,0.0, 1,15,15,71550.5735140159,23, 6,60
324,0.0,0.0, 1, 1,15,0.0, 1, 1,15
325,78515342.7345197,0.0, 1,15,15,71550.5735140179,23, 6,60
408,103312071.473329,0.0, 1, 1,15,166632.373344079, 1, 7,15
461,62089590.5425289,0.0, 1, 1,15,100144.500875047, 1, 7,15
4,59, 2
8,46551773.5272892,7056.14998897868, 1, 9,15,23520.4999632623, 1, 1,15
9,27977181.331458,4240.68027457431, 1, 9,15,14135.6009152477, 1, 1,15
71,31204464.0636485,0.0, 1, 1,15,42054.5337785021, 1,20,15
93,18753591.6101651,0.0, 1, 1,15,25274.3822239423, 1,20,15
125,37776986.9141747,6007.79053978602, 1, 1,15,30038.9526989301, 1,19,15
137,22703616.4891641,3610.62603199175, 1, 1,15,18053.1301599588, 1,19,15
138,478257119.263871,0.0, 1, 1,15,1383454.52239277,28, 9,30
139,0.0,0.0, 1, 1,15,0.0, 1, 1,15
140,20.799370284538,17.3945396017914, 8, 7,60,28.4577498011007,28,11,60
141,20.9128339670401,19.5410219537664, 4, 8,45,24.5362447210119,28,21,60
142,21.2253480691105,19.9999999999998,10, 7,30,28.2106965265814,28,11,45
143,21.0123591768242,18.6972698008957, 8, 7,60,28.3243279485066,28,11,45
144,20.6862926712558,19.9999999999999, 8, 8,60,24.4374648384587,28,20,45
145,20.799563319148,19.7705109768832, 4, 8,45,24.4725530304502,28,20,60
146,180598235.643559,12813.568033439,28, 8,48,101163.322107503, 8, 6,60
147,0.0,0.0, 1, 1,15,0.0, 1, 1,15
148,0.376691966290659,0.363281382591597,23,15,60,0.391668966019045, 8,10,15
149,105945314.787688,7880.1725153201,28, 8,60,60821.9433437007, 8, 6,60
150,0.0,0.0, 1, 1,15,0.0, 1, 1,15
151,0.376010678374818,0.360394742521944,23,15,60,0.390658818595756, 8, 6,60
224,21.2253480691105,19.9999999999998,10, 7,30,28.2106965265814,28,11,45
225,17.6142996148303,6.10463163775946, 9,17,60,37.9705412373128, 3,22,15
258,20.6862926712558,19.9999999999999, 8, 8,60,24.4374648384587,28,20,45
259,17.9698489736216,6.01005088372382, 9,17,60,38.3727670414929, 3,21,60
260,243875828.320423,0.0, 1, 9,30,346893.258034776, 8, 6,60
291,0.0,0.0, 1, 1,15,0.0, 1, 1,15
322,243875828.320427,0.0, 1, 9,30,346893.258034776, 8, 6,60
323,32210859.867906,0.0, 1,18,15,57725.6577752296,10, 6,60
324,0.0,0.0, 1, 1,15,0.0, 1, 1,15
325,32210860.1199978,0.0, 1,18,15,57725.6577752323,10, 6,60
408,93314129.0726841,0.0, 1, 1,15,166632.373344079, 1, 7,15
461,56080920.4900261,0.0, 1, 1,15,100144.500875047, 1, 7,15
4,90, 3
8,51378180.1197508,7056.14998897868, 1, 9,15,23520.4999632623, 1, 1,15
9,30877806.6392668,4240.68027457431, 1, 9,15,14135.6009152477, 1, 1,15
71,34673963.100375,0.0, 1, 1,15,42054.5337785021, 1,20,15
93,20838728.1436404,0.0, 1, 1,15,25274.3822239423, 1,20,15
125,41886315.6433885,6007.79053978602, 1, 1,15,30038.9526989301, 1,19,15
137,25173284.6950464,3610.62603199175, 1, 1,15,18053.1301599588, 1,19,15
138,749739829.895745,0.0, 1, 1,15,1638852.41759752,30, 9,30
139,0.0,0.0, 1, 1,15,0.0, 1, 1,15
140,25.423444257196,18.0781752136834, 8, 7,45,34.5499524045855,30,11,45
141,24.9325208082914,20.5119447087248, 8, 8,30,29.4183399425536,30,22,15
142,24.9891736897003,19.9999999999999, 7, 7,15,34.1842508297503,30,11,30
143,25.2063089734481,19.0390876068417, 8, 7,45,34.3582885689687,30,11,45
144,24.5083247294254,20., 8, 8,60,29.3027733819634,30,19,60
145,24.7204227688584,20.2559723544143, 8, 8,30,29.301380285101,30,21,45
146,187874374.051625,12091.4601017527,19, 8, 3,93802.8209687389, 7,11,15
147,0.0,0.0, 1, 1,15,0.0, 1, 1,15
148,0.374103126823289,0.365495424137934,11,15,60,0.388490883497199, 7,10,60
149,110956058.37701,7809.5135811979,11, 9, 3,53266.8497231619,31,24,60
150,0.0,0.0, 1, 1,15,0.0, 1, 1,15
151,0.373522548214468,0.360772002843043,19,15,60,0.384113199655001, 8, 3,60
224,24.9891736897003,19.9999999999999, 7, 7,15,34.1842508297503,30,11,30
225,19.7172848271537,7.32868536755711, 7,11,60,36.3446682335563,27, 6,60
258,24.5083247294254,20., 8, 9,30,29.3027733819634,30,19,60
259,19.899327450929,7.76382647191926, 7,17,60,32.1450250522553, 2, 6,15
260,38607213.8627906,0.0, 1, 1,15,242879.426466703, 8, 6,60
291,0.0,0.0, 1, 1,15,0.0, 1, 1,15
322,38607213.8627914,0.0, 1, 1,15,242879.426466711, 8, 6,60
323,15862.304443571,0.0, 1, 1,15,2720.26253157415, 8, 6,60
324,0.0,0.0, 1, 1,15,0.0, 1, 1,15
325,15862.3044435714,0.0, 1, 1,15,2720.26253157415, 8, 6,60
408,103312071.473329,0.0, 1, 1,15,166632.373344079, 1, 7,15
461,62089590.5425289,0.0, 1, 1,15,100144.500875047, 1, 7,15
4,120, 4
8,50145705.9216758,7056.14998897868, 1,15,15,23520.4999632623, 1, 1,15
9,30137101.1513079,4240.68027457431, 1,15,15,14135.6009152477, 1, 1,15
71,33223081.6850166,0.0, 1, 1,15,42054.5337785021, 1,19,15
93,19966761.9569144,0.0, 1, 1,15,25274.3822239423, 1,19,15
125,40372352.4273623,6007.79053978602, 1, 1,15,30038.9526989301, 1,19,15
137,24263406.9349846,3610.62603199175, 1, 1,15,18053.1301599588, 1,19,15
138,769114613.377842,0.0, 1, 1,15,1692000.53802372,29, 9,15
139,0.0,0.0, 1, 1,15,0.0, 1, 1,15
140,30.6462883983279,19.9707068295984,26, 6,45,44.2619078441236,11,11,45
141,29.980424914908,23.6507922665474,27, 7,30,38.3263574653571,12,20,15
142,30.093018017054,20.,26, 6,30,43.9399651959769,11,11,30
143,30.369653207691,19.9853534147992,26, 6,45,44.084887930757,11,11,30
144,29.5994797295148,23.2819211589579,26, 9,30,38.0776389076719,12,19,45
145,29.7899523222114,23.5180653847656,26, 9,30,38.1930372828177,12,19,45
146,178236912.118284,11647.8672226751, 7, 7,33,97163.8181497739,11,22,60
147,0.0,0.0, 1, 1,15,0.0, 1, 1,15
148,0.371945293349397,0.365867175654336,22, 6,45,0.384433010546746, 1,10,37
149,105591685.6217,7773.37772143132, 7, 7,60,59838.7446168786,11,22,60
150,0.0,0.0, 1, 1,15,0.0, 1, 1,15
151,0.371371178587614,0.359929477308198,19,12,60,0.379952981903288, 1, 3,22
224,30.093018017054,20.,26, 6,30,43.9399651959769,11,11,30
225,25.5750057684887,8.90421170973785,11,16,60,52.072791469885,20,23,45
258,29.5994797295148,23.2819211589579,26, 9,30,38.0776389076719,12,19,45
259,25.4888008354325,11.0728203677367,11,16,60,43.2411370327093,20,24,30
260,360769.670109419,0.0, 1, 1,15,55002.0561322573, 1, 7,15
291,0.0,0.0, 1, 1,15,0.0, 1, 1,15
322,360769.670109432,0.0, 1, 1,15,55002.0561322585, 1, 7,15
323,0.0,0.0, 1, 1,15,0.0, 1, 1,15
324,0.0,0.0, 1, 1,15,0.0, 1, 1,15
325,0.0,0.0, 1, 1,15,0.0, 1, 1,15
408,99979424.0064472,0.0, 1, 1,15,166632.373344079, 1, 6,15
461,60086700.525028,0.0, 1, 1,15,100144.500875047, 1, 6,15
4,151, 5
8,51378180.1197508,7056.14998897868, 1, 8,15,23520.4999632623, 1, 1,15
9,30877806.6392668,4240.68027457431, 1, 8,15,14135.6009152477, 1, 1,15
71,34673963.100375,0.0, 1, 1,15,42054.5337785021, 1,19,15
93,20838728.1436404,0.0, 1, 1,15,25274.3822239423, 1,19,15
125,41886315.6433885,6007.79053978602, 1, 1,15,30038.9526989301, 1,18,15
137,25173284.6950464,3610.62603199175, 1, 1,15,18053.1301599588, 1,18,15
138,778755969.864045,0.0, 1, 1,15,1627192.97679003, 6, 9,15
139,0.0,0.0, 1, 1,15,0.0, 1, 1,15
140,35.0573874128586,23.4874140634351,30, 6,15,45.7441728016749, 8,11,45
141,34.4848922429358,26.1322019332646,30, 7,15,40.2619016121129,26,22,15
142,34.5229257516401,23.1803590817339,30, 5,60,45.3523829094719, 8,11,30
143,34.7901565822494,23.3531980069969,30, 5,60,45.5382736942809, 8,11,30
144,34.1222215306111,25.953404832318,30, 5,60,40.092660953986,26,19,60
145,34.3035568867734,26.0665125775919,30, 6,60,40.1522510521502,26,21,60
146,180792242.3897,10516.0429696154,30, 7,48,99485.637245309, 6,10,60
147,0.0,0.0, 1, 1,15,0.0, 1, 1,15
148,0.370232023894279,0.360292012483953,28,18,60,0.385609098164689, 6, 9,55
149,108361074.813448,5382.72112856693,30, 9,45,62859.2778350887, 8, 1,60
150,0.0,0.0, 1, 1,15,0.0, 1, 1,15
151,0.369773111663878,0.356108403791733,30,15,60,0.381741604887399, 6, 6,50
224,34.5229257516401,23.1803590817339,30, 5,60,45.3523829094719, 8,11,30
225,29.6192770247325,9.83830068171131, 8,15,30,61.1539605789867,29, 4,30
258,34.1222215306111,25.953404832318,30, 5,60,40.092660953986,26,19,60
259,29.3184701228628,12.3362598261745, 8,16,60,53.0142282116669,28,15,30
260,0.0,0.0, 1, 1,15,0.0, 1, 1,15
291,0.0,0.0, 1, 1,15,0.0, 1, 1,15
322,0.0,0.0, 1, 1,15,0.0, 1, 1,15
323,0.0,0.0, 1, 1,15,0.0, 1, 1,15
324,0.0,0.0, 1, 1,15,0.0, 1, 1,15
325,0.0,0.0, 1, 1,15,0.0, 1, 1,15
408,103312071.473329,0.0, 1, 1,15,166632.373344079, 1, 6,15
461,62089590.5425289,0.0, 1, 1,15,100144.500875047, 1, 6,15
4,181, 6
8,49769377.9222636,7056.14998897868, 1, 8,15,23520.4999632623, 1, 1,15
9,29910931.5366639,4240.68027457431, 1, 8,15,14135.6009152477, 1, 1,15
71,33517463.4214661,0.0, 1, 1,15,42054.5337785021, 1,19,15
93,20143682.632482,0.0, 1, 1,15,25274.3822239423, 1,19,15
125,40516539.4003172,6007.79053978602, 1, 1,15,30038.9526989301, 1,18,15
137,24350061.9597523,3610.62603199175, 1, 1,15,18053.1301599588, 1,18,15
138,782743948.367812,0.0, 1, 1,15,1711927.4557424, 1, 8,60
139,0.0,0.0, 1, 1,15,0.0, 1, 1,15
140,40.5013162636546,30.1704485742634,15, 6,15,53.0994319148067,10,11,45
141,39.7602374909537,32.3160580503308,15, 7,15,47.7051688269646,11,20,60
142,39.9623157741711,29.8073764062986,15, 5,60,52.6238595450014,10,11,45
143,40.2318160189128,29.99648571987,15, 5,60,52.8616457299041,10,11,45
144,39.3885076724652,32.1032751578312,15, 5,60,47.4768390357917,11,19,45
145,39.5743725817095,32.2397864859518,15, 6,60,47.5684093836122,11,20,45
146,179819909.066694,13081.1290769299, 8, 7,32,97611.9633823872,11,10,45
147,0.0,0.0, 1, 1,15,0.0, 1, 1,15
148,0.370117029979017,0.35945251340039,14,15,60,0.382563095135648, 3,10,37
149,106223140.931169,6833.88897896229,15, 9,60,57234.7290845924,12, 6,60
150,0.0,0.0, 1, 1,15,0.0, 1, 1,15
151,0.369462362692566,0.357533919547504,15,15,60,0.382740138991499,12, 3,37
224,39.9623157741711,29.8073764062986,15, 5,60,52.6238595450014,10,11,45
225,30.9130921155902,9.51392251995249, 1,14,60,62.3957066823193,14, 5,60
258,39.3885076724652,32.1032751578312,15, 5,60,47.4768390357917,11,19,45
259,30.845536575848,11.7988363353202, 8,16,45,54.8641589994055,15, 5,60
260,0.0,0.0, 1, 1,15,0.0, 1, 1,15
291,0.0,0.0, 1, 1,15,0.0, 1, 1,15
322,0.0,0.0, 1, 1,15,0.0, 1, 1,15
323,0.0,0.0, 1, 1,15,0.0, 1, 1,15
324,0.0,0.0, 1, 1,15,0.0, 1, 1,15
325,0.0,0.0, 1, 1,15,0.0, 1, 1,15
408,99979424.0064472,0.0, 1, 1,15,166632.373344079, 1, 6,15
461,60086700.525028,0.0, 1, 1,15,100144.500875047, 1, 6,15
4,212, 7
8,51754508.119163,7056.14998897868, 1,15,15,23520.4999632623, 1, 1,15
9,31103976.2539108,4240.68027457431, 1,15,15,14135.6009152477, 1, 1,15
71,34379581.3639254,0.0, 1, 1,15,42054.5337785021, 1,19,15
93,20661807.4680728,0.0, 1, 1,15,25274.3822239423, 1,19,15
125,41742128.6704336,6007.79053978602, 1, 1,15,30038.9526989301, 1,19,15
137,25086629.6702787,3610.62603199175, 1, 1,15,18053.1301599588, 1,19,15
138,602305401.832122,0.0, 1, 1,15,1491740.44364336,12, 9,30
139,0.0,0.0, 1, 1,15,0.0, 1, 1,15
140,28.2330454515754,24.1160517618899,12, 4,30,42.6478235399888, 1,12,30
141,26.2976493127743,24.5813796138235,17,22,15,37.4685333359422, 1,14,15
142,26.9288487635222,23.9656559827399,17,14,15,42.2835790946675, 1,12,30
143,27.5809471075488,24.080892472956,12, 4,30,42.4657013173282, 1,12,30
144,25.6818449938133,23.9403247732057,17,14,15,37.3608348012877, 1,13,60
145,25.9897471532938,24.2948630459413,17,21,60,37.3764927079033, 1,13,60
146,36696960.094839,0.0, 1,14, 2,62439.9443410101, 1,10,45
147,22531194.8868828,0.0, 1, 1,15,52628.4797346052,30,14,30
148,0.352105716738215,0.341648079134793,20,15,60,0.369651940638094, 1,10,22
149,15748541.4382149,0.0, 1,14, 2,36770.8004447415, 1, 3,60
150,13435900.3926313,0.0, 1, 1,15,30607.2843515597,30,14,45
151,0.350649378796523,0.341641754139566,20,15,60,0.366899154136088, 1, 1,15
224,26.9288487635222,23.4405609179922, 2,14, 5,42.2835790946675, 1,12,30
225,68.7707795732557,29.321044841091,12,11,45,90.8069034478633, 3, 5,60
258,25.6818449938133,23.5598451774678,24,14, 3,37.3608348012877, 1,13,60
259,72.8331787794525,42.1111105621146, 1,13,60,89.8144272778115, 2,14, 3
260,0.0,0.0, 1, 1,15,0.0, 1, 1,15
291,540521947.072113,0.0, 1, 1,15,2503763.00068684, 1,14,45
322,5.323541927282349E-006,0.0, 1, 1,15,1.514308678451926E-007,13,14,45
323,0.0,0.0, 1, 1,15,0.0, 1, 1,15
324,194694125.256531,0.0, 1, 1,15,1285669.09736201, 1,14,45
325,1.331502588186595E-006,0.0, 1, 1,15,5.182414497539867E-008, 7,14,45
408,103312071.473329,0.0, 1, 1,15,166632.373344079, 1, 6,15
461,62089590.5425289,0.0, 1, 1,15,100144.500875047, 1, 6,15
4,243, 8
8,51378180.1197508,7056.14998897868, 1, 8,15,23520.4999632623, 1, 1,15
9,30877806.6392668,4240.68027457431, 1, 8,15,14135.6009152477, 1, 1,15
71,34673963.100375,0.0, 1, 1,15,42054.5337785021, 1,19,15
93,20838728.1436404,0.0, 1, 1,15,25274.3822239423, 1,19,15
125,41886315.6433885,6007.79053978602, 1, 1,15,30038.9526989301, 1,18,15
137,25173284.6950464,3610.62603199175, 1, 1,15,18053.1301599588, 1,18,15
138,698397113.766209,0.0, 1, 1,15,1510470.28093786,17, 9,30
139,0.0,0.0, 1, 1,15,0.0, 1, 1,15
140,28.6678397925919,23.2553518061957,26, 6,60,40.9737347529659, 7,12,15
141,26.2741571721102,24.5347466947547,26, 7,30,30.8431958247266, 7,14,15
142,27.1912184410202,23.0438159060978,26, 6,60,40.9400257009896, 7,11,60
143,27.9295291168061,23.1495838561468,26, 6,60,40.9534437548882, 7,11,60
144,25.6076189885052,23.9576342628565,25,14,15,30.9856292999493, 7,13,60
145,25.9408880803076,24.4122664187242,25,21,60,30.8375010784049, 7,13,60
146,39371824.8419995,0.0, 1,14, 1,61384.7168380054,27,11,60
147,24063410.1154614,0.0, 1, 1,15,51977.6800897741, 7,16,15
148,0.35185155178073,0.339229432478076, 7,15,60,0.365384325466732,28,10,52
149,15461801.5181416,0.0, 1,13,60,20718.775791132,28, 6,60
150,14423963.6524968,0.0, 1, 1,15,31032.8692735914, 7,15,60
151,0.350007923635805,0.339220393285575, 7,15,60,0.358602161133888,28, 7, 7
224,27.1912184410202,23.0438159060978,26, 6,60,40.9400257009896, 7,11,60
225,66.7816696633725,31.8207559798105,28,11,45,92.5958414424455, 2, 5,60
258,25.6076189885052,23.564924865291,25,14, 5,30.9856292999493, 7,13,60
259,71.8080242312044,48.1956560322873,30,13,60,93.2117231139402, 2, 5,60
260,0.0,0.0, 1, 1,15,0.0, 1, 1,15
291,610865590.749141,0.0, 1, 1,15,2168743.33130593, 7,14,45
322,6.621430657105520E-006,0.0, 1, 1,15,1.948137651197612E-007,27,14,45
323,0.0,0.0, 1, 1,15,0.0, 1, 1,15
324,207163052.959899,0.0, 1, 1,15,592714.066731479, 7,14,45
325,1.249402714620373E-006,0.0, 1, 1,15,5.023821358918212E-008,20,14,45
408,103312071.473329,0.0, 1, 1,15,166632.373344079, 1, 6,15
461,62089590.5425289,0.0, 1, 1,15,100144.500875047, 1, 6,15
4,273, 9
8,49957541.9219697,7056.14998897868, 1, 8,15,23520.4999632623, 1, 1,15
9,30024016.3439859,4240.68027457431, 1, 8,15,14135.6009152477, 1, 1,15
71,33370272.5532414,0.0, 1, 1,15,42054.5337785021, 1,19,15
93,20055222.2946982,0.0, 1, 1,15,25274.3822239423, 1,19,15
125,40444445.9138398,6007.79053978602, 1, 1,15,30038.9526989301, 1,18,15
137,24306734.4473684,3610.62603199175, 1, 1,15,18053.1301599588, 1,18,15
138,593602993.142082,0.0, 1, 1,15,1605672.7200533,16, 9,30
139,0.0,0.0, 1, 1,15,0.0, 1, 1,15
140,27.1334289396438,22.3764249244567,30, 7,30,36.8532928743702,16,11,45
141,25.5666114222419,23.9221759157027,30, 7,60,28.7588819918031, 7,14,15
142,25.9483964007898,22.1286870347058,30, 7,30,36.9147289159846,16,11,45
143,26.5409126702168,22.2525559795813,30, 7,30,36.8840108951774,16,11,45
144,25.0118028973876,23.7857542508921,30, 7,60,28.8730707982091, 7,13,60
145,25.2892071598148,23.8539650832974,30, 7,60,28.7529790530994, 7,13,60
146,59290301.5209188,0.0, 1,14, 2,58813.6794347091,16,11,15
147,2528157.24313389,0.0, 1, 1,15,23589.4255773607,20,18,60
148,0.355290759151342,0.342678053898161, 6,15,60,0.369073852815085,16,10,37
149,30371886.5092108,0.0, 1,14, 1,30021.1013307895,15,24,60
150,1545587.12562118,0.0, 1, 1,15,15728.0626575209,20,18,60
151,0.354193951829741,0.342681558601015, 6,15,60,0.363121781802967,30,24,60
224,25.9483964007898,22.1286870347058,30, 7,30,36.9147289159846,16,11,45
225,59.4233329899427,22.944963647149,16,11,45,87.4367258883694, 9, 6,60
258,25.0118028973876,23.5377559475099,26,14, 3,28.8730707982091, 7,13,60
259,61.2793679035602,32.7969374761701,16,13,60,84.6182345164124, 9, 6,60
260,0.0,0.0, 1, 1,15,0.0, 1, 1,15
291,396559445.268165,0.0, 1, 1,15,1580181.39880284, 7,14,45
322,8.254741682581621E-006,0.0, 1, 1,15,1.929720383486711E-007, 5,14,45
323,0.0,0.0, 1, 1,15,0.0, 1, 1,15
324,128943215.823708,0.0, 1, 1,15,384197.179498382, 7,14,45
325,2.617190959191313E-006,0.0, 1, 1,15,2.726778802752961E-008, 9,14,45
408,99979424.0064472,0.0, 1, 1,15,166632.373344079, 1, 6,15
461,60086700.525028,0.0, 1, 1,15,100144.500875047, 1, 6,15
4,304,10
8,51566344.1194569,7056.14998897868, 1,15,15,23520.4999632623, 1, 1,15
9,30990891.4465888,4240.68027457431, 1,15,15,14135.6009152477, 1, 1,15
71,34526772.2321502,0.0, 1, 1,15,42054.5337785021, 1,19,15
93,20750267.8058566,0.0, 1, 1,15,25274.3822239423, 1,19,15
125,41814222.156911,6007.79053978602, 1, 1,15,30038.9526989301, 1,19,15
137,25129957.1826626,3610.62603199175, 1, 1,15,18053.1301599588, 1,19,15
138,520878452.813434,0.0, 1, 1,15,1409204.80659268,12, 9,30
139,0.0,0.0, 1, 1,15,0.0, 1, 1,15
140,28.3590080326127,19.4778186364182,24, 7,30,39.0832544303918, 5,11,30
141,28.278046727327,22.703524114187,29, 8,30,34.6445054199083, 5,21,30
142,27.9930692790106,19.9999999999999,24, 6,30,38.9055829300887, 5,11,15
143,28.1760386558116,19.7389093182091,24, 7,30,38.9659035560664, 5,11,30
144,28.0576132836262,22.5564960133626,29, 7,60,34.6212448965732, 5,19,60
145,28.1678300054766,22.6472610994862,29, 7,60,34.6097325957022, 5,19,60
146,137674552.081133,8037.7465663372, 1, 8, 3,74045.405370639,15,24,60
147,0.0,0.0, 1, 1,15,0.0, 1, 1,15
148,0.365558598719832,0.357920963549288,29, 3,60,0.376067100331249,12,10,22
149,84040861.1241035,3987.3001573944,14,18,60,48773.1341915023,15,24,60
150,0.0,0.0, 1, 1,15,0.0, 1, 1,15
151,0.365653985536656,0.355654440096358,27,15,60,0.373848782222357,13, 6,60
224,27.9930692790106,19.9999999999999,24, 6,30,38.9055829300887, 5,11,15
225,34.5200899783329,13.7712609181837,19,14,60,65.3739951134333,28,24,30
258,28.0576132836262,22.5564960133626,29, 7,60,34.6212448965732, 5,19,60
259,34.04772148084,15.6186138131155,19,15,45,58.5163871141732,28,24,30
260,1034724.372989,0.0, 1, 1,15,79320.45613123,24, 7,30
291,0.0,0.0, 1, 1,15,0.0, 1, 1,15
322,1034724.37298903,0.0, 1, 1,15,79320.4561312349,24, 7,30
323,0.0,0.0, 1, 1,15,0.0, 1, 1,15
324,0.0,0.0, 1, 1,15,0.0, 1, 1,15
325,0.0,0.0, 1, 1,15,0.0, 1, 1,15
408,103312071.473329,0.0, 1, 1,15,166632.373344079, 1, 6,15
461,62089590.5425289,0.0, 1, 1,15,100144.500875047, 1, 6,15
4,334,11
8,49769377.9222636,7056.14998897868, 1, 9,15,23520.4999632623, 1, 1,15
9,29910931.5366639,4240.68027457431, 1, 9,15,14135.6009152477, 1, 1,15
71,33517463.4214661,0.0, 1, 1,15,42054.5337785021, 1,20,15
93,20143682.632482,0.0, 1, 1,15,25274.3822239423, 1,20,15
125,40516539.4003172,6007.79053978602, 1, 1,15,30038.9526989301, 1,19,15
137,24350061.9597523,3610.62603199175, 1, 1,15,18053.1301599588, 1,19,15
138,346749202.826879,0.0, 1, 1,15,1053897.43578239,12, 9,30
139,0.0,0.0, 1, 1,15,0.0, 1, 1,15
140,20.976466977582,17.5342737626438,27, 7,60,27.131064476375, 7,15,30
141,21.4733745068,19.6339840377632,11, 8,30,25.5409369424855, 7,23,60
142,21.262665846856,19.9999999999998, 9, 5,30,26.9312255035236, 7,15,15
143,21.119566412219,18.7671368813218,27, 7,60,27.0299645679932, 7,15,15
144,21.3480461042509,19.9999999999999,12, 8,15,25.7868088770309, 7,22,60
145,21.4107103055255,19.8169920188816,11, 8,30,25.6451718001787, 7,22,60
146,129965498.131333,9442.29812360424,18,20, 7,82517.2409832934,30,24,60
147,0.0,0.0, 1, 1,15,0.0, 1, 1,15
148,0.367048302667361,0.355834126103508, 5,15,60,0.381204436345901,23, 8,60
149,78821857.0757254,6477.96852777249,18,20, 7,48497.686817,23, 7,60
150,0.0,0.0, 1, 1,15,0.0, 1, 1,15
151,0.367156433425363,0.354099413383482, 6,15,60,0.381212601328479,23, 8,60
224,21.262665846856,19.9999999999998, 9, 5,30,26.9312255035236, 7,15,15
225,34.9152333040569,14.4902329992201,23,11,30,59.9002469616253,19, 8,60
258,21.3480461042509,19.9999999999999,12, 8,15,25.7868088770309, 7,22,60
259,34.538293793897,15.389722170699,23,13,15,59.058584438189,19,11,30
260,155407396.004676,0.0, 1, 1,15,292727.30237699,27, 6,60
291,0.0,0.0, 1, 1,15,0.0, 1, 1,15
322,155407396.00468,0.0, 1, 1,15,292727.30237699,27, 6,60
323,12823132.6260095,0.0, 1, 1,15,40540.9353966184,23, 6,60
324,0.0,0.0, 1, 1,15,0.0, 1, 1,15
325,12823133.1671502,0.0, 1, 1,15,40540.9353966203,23, 6,60
408,99979424.0064472,0.0, 1, 1,15,166632.373344079, 1, 7,15
461,60086700.525028,0.0, 1, 1,15,100144.500875047, 1, 7,15
4,365,12
8,51754508.119163,7056.14998897868, 1, 9,15,23520.4999632623, 1, 1,15
9,31103976.2539108,4240.68027457431, 1, 9,15,14135.6009152477, 1, 1,15
71,34379581.3639254,0.0, 1, 1,15,42054.5337785021, 1,20,15
93,20661807.4680728,0.0, 1, 1,15,25274.3822239423, 1,20,15
125,41742128.6704336,6007.79053978602, 1, 1,15,30038.9526989301, 1,19,15
137,25086629.6702787,3610.62603199175, 1, 1,15,18053.1301599588, 1,19,15
138,333540341.460989,0.0, 1, 1,15,955383.462583713,31, 9,45
139,0.0,0.0, 1, 1,15,0.0, 1, 1,15
140,19.0863218667481,17.0885988781322,18, 6,60,22.4820508305682,13,11,15
141,19.9753229700554,19.4499010975108,17, 8,60,20.4683275077951,28,23,30
142,20.1087982073147,19.9999999999997,20, 4,60,22.0755067143001,13,10,60
143,19.5975600370314,18.5442994390661,18, 6,60,22.2749315400104,13,11,15
144,20.0196300985769,19.9999999999999,17, 5,15,20.6564862183079,28,20,60
145,19.9974765343162,19.7249505487554,17, 8,60,20.5380521446951,28,20,60
146,199078914.579333,29771.1284449543, 7,10,22,111972.619833017,31, 9,60
147,0.0,0.0, 1, 1,15,0.0, 1, 1,15
148,0.376680773445835,0.361747135633031,29,15,60,0.394733570518735,31,24,60
149,119370005.42938,16800.4846322362, 7,10,30,67105.0896282685,31, 9,60
150,0.0,0.0, 1, 1,15,0.0, 1, 1,15
151,0.376565865212683,0.361747367665272,29,15,60,0.394729338879651,31,24,60
224,20.1087982073147,19.9999999999997,20, 4,60,22.0755067143001,13,10,60
225,20.0483750011476,7.54945064554617,15,17,60,40.2639994675262,25, 4,30
258,20.0196300985769,19.9999999999999,17, 5,15,20.6564862183079,28,20,60
259,20.2521459817327,7.36515033410724,16,19,60,40.8673398715028,25, 4,15
260,425765599.960647,0.0, 1, 9,30,389503.436241345,18, 6,60
291,0.0,0.0, 1, 1,15,0.0, 1, 1,15
322,425765599.960656,0.0, 1, 9,30,389503.436241349,18, 6,60
323,71847521.5541903,0.0, 1,20,15,70981.0477285824,17, 8,60
324,0.0,0.0, 1, 1,15,0.0, 1, 1,15
325,71847521.9304755,0.0, 1,20,15,70981.0477285858,17, 8,60
408,103312071.473329,0.0, 1, 1,15,166632.373344079, 1, 7,15
461,62089590.5425289,0.0, 1, 1,15,100144.500875047, 1, 7,15
End of Data
 Number of Records Written=         384
