Program Version,EnergyPlus, Version 8.4.0-09f5359d8a, YMD=2023.08.02 14:39
1,5,Environment Title[],Latitude[deg],Longitude[deg],Time Zone[],Elevation[m]
2,6,Day of Simulation[],Month[],Day of Month[],DST Indicator[1=yes 0=no],Hour[],StartMinute[],EndMinute[],DayType
3,3,Cumulative Day of Simulation[],Month[],Day of Month[],DST Indicator[1=yes 0=no],DayType  ! When Daily Report Variables Requested
4,2,Cumulative Days of Simulation[],Month[]  ! When Monthly Report Variables Requested
5,1,Cumulative Days of Simulation[] ! When Run Period Report Variables Requested
8,9,PERIM,Zone People Total Heating Energy [J] !Monthly  [Value,Min,Day,Hour,Minute,Max,Day,Hour,Minute]
9,9,CORE,Zone People Total Heating Energy [J] !Monthly  [Value,Min,Day,Hour,Minute,Max,Day,Hour,Minute]
71,9,PERIM,Zone Lights Electric Energy [J] !Monthly  [Value,Min,Day,Hour,Minute,Max,Day,Hour,Minute]
93,9,CORE,Zone Lights Electric Energy [J] !Monthly  [Value,Min,Day,Hour,Minute,Max,Day,Hour,Minute]
125,9,PERIM,Zone Electric Equipment Electric Energy [J] !Monthly  [Value,Min,Day,Hour,Minute,Max,Day,Hour,Minute]
137,9,CORE,Zone Electric Equipment Electric Energy [J] !Monthly  [Value,Min,Day,Hour,Minute,Max,Day,Hour,Minute]
138,9,PERIM,Zone Windows Total Transmitted Solar Radiation Energy [J] !Monthly  [Value,Min,Day,Hour,Minute,Max,Day,Hour,Minute]
139,9,CORE,Zone Windows Total Transmitted Solar Radiation Energy [J] !Monthly  [Value,Min,Day,Hour,Minute,Max,Day,Hour,Minute]
140,9,PERIM,Zone Mean Radiant Temperature [C] !Monthly [Value,Min,Day,Hour,Minute,Max,Day,Hour,Minute]
141,9,CORE,Zone Mean Radiant Temperature [C] !Monthly [Value,Min,Day,Hour,Minute,Max,Day,Hour,Minute]
142,9,PERIM,Zone Mean Air Temperature [C] !Monthly [Value,Min,Day,Hour,Minute,Max,Day,Hour,Minute]
143,9,PERIM,Zone Operative Temperature [C] !Monthly [Value,Min,Day,Hour,Minute,Max,Day,Hour,Minute]
144,9,CORE,Zone Mean Air Temperature [C] !Monthly [Value,Min,Day,Hour,Minute,Max,Day,Hour,Minute]
145,9,CORE,Zone Operative Temperature [C] !Monthly [Value,Min,Day,Hour,Minute,Max,Day,Hour,Minute]
146,9,PERIM,Zone Infiltration Total Heat Loss Energy [J] !Monthly  [Value,Min,Day,Hour,Minute,Max,Day,Hour,Minute]
147,9,PERIM,Zone Infiltration Total Heat Gain Energy [J] !Monthly  [Value,Min,Day,Hour,Minute,Max,Day,Hour,Minute]
148,9,PERIM,Zone Infiltration Air Change Rate [ach] !Monthly [Value,Min,Day,Hour,Minute,Max,Day,Hour,Minute]
149,9,CORE,Zone Infiltration Total Heat Loss Energy [J] !Monthly  [Value,Min,Day,Hour,Minute,Max,Day,Hour,Minute]
150,9,CORE,Zone Infiltration Total Heat Gain Energy [J] !Monthly  [Value,Min,Day,Hour,Minute,Max,Day,Hour,Minute]
151,9,CORE,Zone Infiltration Air Change Rate [ach] !Monthly [Value,Min,Day,Hour,Minute,Max,Day,Hour,Minute]
224,9,PERIM,Zone Air Temperature [C] !Monthly [Value,Min,Day,Hour,Minute,Max,Day,Hour,Minute]
225,9,PERIM,Zone Air Relative Humidity [%] !Monthly [Value,Min,Day,Hour,Minute,Max,Day,Hour,Minute]
258,9,CORE,Zone Air Temperature [C] !Monthly [Value,Min,Day,Hour,Minute,Max,Day,Hour,Minute]
259,9,CORE,Zone Air Relative Humidity [%] !Monthly [Value,Min,Day,Hour,Minute,Max,Day,Hour,Minute]
260,9,PERIM IDEAL LOADS AIR,Zone Ideal Loads Supply Air Total Heating Energy [J] !Monthly  [Value,Min,Day,Hour,Minute,Max,Day,Hour,Minute]
291,9,PERIM IDEAL LOADS AIR,Zone Ideal Loads Supply Air Total Cooling Energy [J] !Monthly  [Value,Min,Day,Hour,Minute,Max,Day,Hour,Minute]
322,9,PERIM IDEAL LOADS AIR,Zone Ideal Loads Zone Total Heating Energy [J] !Monthly  [Value,Min,Day,Hour,Minute,Max,Day,Hour,Minute]
323,9,CORE IDEAL LOADS AIR,Zone Ideal Loads Supply Air Total Heating Energy [J] !Monthly  [Value,Min,Day,Hour,Minute,Max,Day,Hour,Minute]
324,9,CORE IDEAL LOADS AIR,Zone Ideal Loads Supply Air Total Cooling Energy [J] !Monthly  [Value,Min,Day,Hour,Minute,Max,Day,Hour,Minute]
325,9,CORE IDEAL LOADS AIR,Zone Ideal Loads Zone Total Heating Energy [J] !Monthly  [Value,Min,Day,Hour,Minute,Max,Day,Hour,Minute]
408,9,DHW PERIM,Water Use Equipment Heating Energy [J] !Monthly  [Value,Min,Day,Hour,Minute,Max,Day,Hour,Minute]
461,9,DHW CORE,Water Use Equipment Heating Energy [J] !Monthly  [Value,Min,Day,Hour,Minute,Max,Day,Hour,Minute]
End of Data Dictionary
1,ARCHSIM,  37.57, 126.97,   9.00,  87.10
4,31, 1
8,51566344.1273586,7056.14999006004, 1,16,15,23520.4999668668, 1, 1,15
9,30990891.4321915,4240.68027260416, 1,16,15,14135.6009086805, 1, 1,15
71,34526772.2374416,0.0, 1, 1,15,42054.533784947, 1,20,15
93,20750267.7962163,0.0, 1, 1,15,25274.3822122002, 1,20,15
125,41814222.1633188,6007.79054070672, 1, 1,15,30038.9527035336, 1,20,15
137,25129957.1709877,3610.62603031431, 1, 1,15,18053.1301515715, 1,20,15
138,254778205.133787,0.0, 1, 1,15,1060634.05510788,30,10,30
139,0.0,0.0, 1, 1,15,0.0, 1, 1,15
140,18.662758258759,17.127878994598,23, 7,60,21.2423760442006, 4,11,45
141,19.8329848839024,19.4342806617845,15, 8,60,20.2945036913896, 8,23,60
142,20.0142441055643,19.9999999999998,25, 4,60,20.9357422027097, 4,11,30
143,19.3385011821616,18.563939497299,23, 7,60,21.0773771399388, 4,11,30
144,20.0068621691598,19.9999999999999,15, 4,15,20.4562721474386, 8,20,45
145,19.9199235265311,19.7171403308922,15, 8,60,20.339875827728, 8,21,60
146,212858803.287394,22907.8379817695, 8,10,52,109430.023990828,23, 6,60
147,0.0,0.0, 1, 1,15,0.0, 1, 1,15
148,0.378722834012098,0.361564617663844, 6,15,60,0.394108464139949,23, 6,60
149,128050857.663123,13495.1526999287, 8,10,52,65863.7496927057,23, 6,60
150,0.0,0.0, 1, 1,15,0.0, 1, 1,15
151,0.378712418620433,0.361565087508112, 6,15,60,0.39410645311761,23, 6,60
224,20.0142441055643,19.9999999999998,25, 4,60,20.9357422027097, 4,11,30
225,17.5397330747651,6.62017169941664,14,19,60,34.974783702441, 2,22,45
258,20.0068621691598,19.9999999999999,15, 4,15,20.4562721474386, 8,20,45
259,17.6357299846679,6.20149801634251,14,19,60,35.2912812002378, 2,22,45
260,528899353.768237,0.0, 1,11,30,386912.544647982,23, 6,60
291,0.0,0.0, 1, 1,15,0.0, 1, 1,15
322,528899353.768249,0.0, 1,11,30,386912.544648002,23, 6,60
323,94116072.4294454,0.0, 1,20,15,73413.9066518832,23, 6,60
324,0.0,0.0, 1, 1,15,0.0, 1, 1,15
325,94116072.4294481,0.0, 1,20,15,73413.9066518832,23, 6,60
408,103312071.489162,0.0, 1, 1,15,166632.373369615, 1, 7,15
461,62089590.5136832,0.0, 1, 1,15,100144.500828521, 1, 7,15
4,59, 2
8,46551773.5344226,7056.14999006004, 1, 9,15,23520.4999668668, 1, 1,15
9,27977181.3184607,4240.68027260416, 1, 9,15,14135.6009086805, 1, 1,15
71,31204464.0684308,0.0, 1, 1,15,42054.533784947, 1,20,15
93,18753591.6014525,0.0, 1, 1,15,25274.3822122002, 1,20,15
125,37776986.9199639,6007.79054070672, 1, 1,15,30038.9527035336, 1,19,15
137,22703616.4786164,3610.62603031431, 1, 1,15,18053.1301515715, 1,19,15
138,328552453.790707,0.0, 1, 1,15,1332036.98170148,28, 9,30
139,0.0,0.0, 1, 1,15,0.0, 1, 1,15
140,19.5999896878399,17.3812918988194, 8, 6,60,24.5245889881709,28,12,15
141,20.2363959107366,19.5435777423403, 4, 8,45,22.189022144924,28,22,45
142,20.3645815986665,19.9999999999998,10, 1,15,24.2900472661812,28,11,60
143,19.9822856432532,18.6906459494097, 8, 6,60,24.4035240642789,28,11,60
144,20.2028982406923,19.9999999999999, 9, 6,30,22.237655444265,28,20,60
145,20.2196470757144,19.7717888711702, 4, 8,45,22.1940398772351,28,20,60
146,171138972.326795,13356.9479189286,28,10,48,100467.474120401, 8, 6,60
147,0.0,0.0, 1, 1,15,0.0, 1, 1,15
148,0.375330103165874,0.360684558878506,23,15,60,0.390359234397455, 8, 6,60
149,102266805.416232,7013.17069908907,28,11,15,60400.6472678073, 8, 6,60
150,0.0,0.0, 1, 1,15,0.0, 1, 1,15
151,0.375126970709086,0.358921894071844,23,15,60,0.390358805265751, 8, 6,60
224,20.3645815986665,19.9999999999998,10, 1,15,24.2900472661812,28,11,60
225,18.1201559796265,6.12606427639487, 9,17,60,37.9628580279762, 3,22,15
258,20.2028982406923,19.9999999999999, 9, 6,30,22.237655444265,28,20,60
259,18.3622630832405,6.07408538497738, 9,17,60,38.371517074904, 3,21,60
260,311965774.287948,0.0, 1,10,60,346164.328273212, 8, 6,60
291,0.0,0.0, 1, 1,15,0.0, 1, 1,15
322,311965774.287956,0.0, 1,10,60,346164.328273232, 8, 6,60
323,51148072.5435598,0.0, 2,20,15,61793.5787698093, 8, 6,60
324,0.0,0.0, 1, 1,15,0.0, 1, 1,15
325,51148072.6966843,0.0, 2,20,15,61793.5787698111, 8, 6,60
408,93314129.0869846,0.0, 1, 1,15,166632.373369615, 1, 7,15
461,56080920.4639719,0.0, 1, 1,15,100144.500828521, 1, 7,15
4,90, 3
8,51378180.1276236,7056.14999006004, 1, 9,15,23520.4999668668, 1, 1,15
9,30877806.624922,4240.68027260416, 1, 9,15,14135.6009086805, 1, 1,15
71,34673963.1056889,0.0, 1, 1,15,42054.533784947, 1,20,15
93,20838728.133959,0.0, 1, 1,15,25274.3822122002, 1,20,15
125,41886315.6498072,6007.79054070672, 1, 1,15,30038.9527035336, 1,19,15
137,25173284.6833515,3610.62603031431, 1, 1,15,18053.1301515715, 1,19,15
138,655108308.591861,0.0, 1, 1,15,1615570.03885147,30, 9,30
139,0.0,0.0, 1, 1,15,0.0, 1, 1,15
140,24.3271715583661,17.9502921533024, 8, 7,45,34.2476750037842,30,11,45
141,23.9351309737574,20.0680076358779, 2, 8,15,29.0041961501488,30,22,30
142,24.0120445796334,19.9999999999999, 3, 5,15,33.9529444798834,30,11,30
143,24.1696080689997,18.9751460766512, 8, 7,45,34.0808334158081,30,11,45
144,23.5603811929941,20., 8, 5,60,28.9105864643443,30,19,60
145,23.7477560833757,20.0340038179389, 2, 8,15,28.8989583214949,30,21,45
146,176098663.261391,11433.6899361937,19, 8, 3,85638.1484514732, 7,11,45
147,0.0,0.0, 1, 1,15,0.0, 1, 1,15
148,0.372620984216551,0.363013799364649,19,15,60,0.386635472734994, 7, 9,60
149,103968278.514085,6273.30335197654,11,10,48,51881.5972185328,31,24,60
150,0.0,0.0, 1, 1,15,0.0, 1, 1,15
151,0.372072316349712,0.358819987649835,19,15,60,0.383361442193686, 8, 6,60
224,24.0120445796334,19.9999999999999, 3, 5,15,33.9529444798834,30,11,30
225,20.3386764204519,7.95813806002868, 7,15,60,37.1776950992564,13, 3,60
258,23.5603811929941,20., 8, 5,60,28.9105864643443,30,19,60
259,20.6037178566384,8.0745662701513, 7,17,60,33.99040635085, 2, 3,30
260,55810980.9139156,0.0, 1, 9,30,256449.361003471, 8, 6,60
291,0.0,0.0, 1, 1,15,0.0, 1, 1,15
322,55810980.9139169,0.0, 1, 9,30,256449.361003471, 8, 6,60
323,1640484.40278666,0.0, 1, 1,15,29476.6844636605, 8, 6,60
324,0.0,0.0, 1, 1,15,0.0, 1, 1,15
325,1640484.46999829,0.0, 1, 1,15,29476.6844636616, 8, 6,60
408,103312071.489162,0.0, 1, 1,15,166632.373369615, 1, 7,15
461,62089590.5136832,0.0, 1, 1,15,100144.500828521, 1, 7,15
4,120, 4
8,50145705.9293598,7056.14999006004, 1,15,15,23520.4999668668, 1, 1,15
9,30137101.1373072,4240.68027260416, 1,15,15,14135.6009086805, 1, 1,15
71,33223081.6901082,0.0, 1, 1,15,42054.533784947, 1,19,15
93,19966761.9476381,0.0, 1, 1,15,25274.3822122002, 1,19,15
125,40372352.4335492,6007.79054070672, 1, 1,15,30038.9527035336, 1,19,15
137,24263406.9237123,3610.62603031431, 1, 1,15,18053.1301515715, 1,19,15
138,720998394.301338,0.0, 1, 1,15,1661590.27848287,29, 9,15
139,0.0,0.0, 1, 1,15,0.0, 1, 1,15
140,30.2566784891997,19.7615282059463,26, 6,45,44.2333322350391,11,11,45
141,29.6223521088296,23.1802592958787,27, 7,30,38.1152466723225,12,20,15
142,29.7370032570504,20.,26, 6,45,43.9463139903239,11,11,30
143,29.9968408731251,19.8807641029731,26, 6,45,44.0770327524929,11,11,30
144,29.2607731602662,22.9085836058223,27, 8,30,37.9268280840797,11,19,60
145,29.441562634548,23.0620470409411,27, 7,30,37.9908916260329,12,19,45
146,172999338.030142,11492.3743764477, 7, 7,33,96260.0049336538,11,22,60
147,0.0,0.0, 1, 1,15,0.0, 1, 1,15
148,0.371248420794276,0.364832439157153,14,18,60,0.383813048721917, 1,10,37
149,102464995.192122,7594.54548171067, 7, 7,60,59256.4012746675,11,22,60
150,0.0,0.0, 1, 1,15,0.0, 1, 1,15
151,0.370694785850959,0.359322177199452,19,12,60,0.379149248616155, 1, 3,22
224,29.7370032570504,20.,26, 6,45,43.9463139903239,11,11,30
225,25.9606693695437,9.06905073026675,11,16,60,52.6213395344563,20,23,45
258,29.2607731602662,22.8803061594117,27, 8,15,37.9268280840797,11,19,60
259,25.8682807560308,11.1309264966868,11,16,60,43.862385751106,25, 2,45
260,745863.141309469,0.0, 1, 1,15,72040.8618221651, 1, 7,15
291,0.0,0.0, 1, 1,15,0.0, 1, 1,15
322,745863.141309486,0.0, 1, 1,15,72040.861822168, 1, 7,15
323,0.0,0.0, 1, 1,15,0.0, 1, 1,15
324,0.0,0.0, 1, 1,15,0.0, 1, 1,15
325,0.0,0.0, 1, 1,15,0.0, 1, 1,15
408,99979424.0217693,0.0, 1, 1,15,166632.373369615, 1, 6,15
461,60086700.4971128,0.0, 1, 1,15,100144.500828521, 1, 6,15
4,151, 5
8,51378180.1276236,7056.14999006004, 1, 8,15,23520.4999668668, 1, 1,15
9,30877806.624922,4240.68027260416, 1, 8,15,14135.6009086805, 1, 1,15
71,34673963.1056889,0.0, 1, 1,15,42054.533784947, 1,19,15
93,20838728.133959,0.0, 1, 1,15,25274.3822122002, 1,19,15
125,41886315.6498073,6007.79054070672, 1, 1,15,30038.9527035336, 1,18,15
137,25173284.6833514,3610.62603031431, 1, 1,15,18053.1301515715, 1,18,15
138,698325773.412924,0.0, 1, 1,15,1593884.35785772, 6, 9,15
139,0.0,0.0, 1, 1,15,0.0, 1, 1,15
140,34.056071414481,23.0545282996043,30, 6,60,44.7254683934958, 8,11,45
141,33.5881465593994,25.609543172794,30, 7,45,39.0181337012157,17,21,15
142,33.575915559174,22.823805578213,30, 6,60,44.4055772158352, 8,11,30
143,33.8159934868276,22.9391669389086,30, 6,60,44.5549242173996, 8,11,30
144,33.2629327506106,25.5196052901184,30, 5,60,38.9422851322512,17,19,45
145,33.425539655005,25.5866737534694,30, 8,15,38.9499641695649,17,19,60
146,170074617.284559,8879.1338473606,30, 7,33,95934.8621953465, 6,10,60
147,0.0,0.0, 1, 1,15,0.0, 1, 1,15
148,0.368842731623528,0.358588689619779,25,15,60,0.384208538204302, 6, 9,55
149,102249519.583475,2905.59527734038,21,19,60,61553.821921846, 8, 1,60
150,0.0,0.0, 1, 1,15,0.0, 1, 1,15
151,0.368488833457206,0.35468179487038,25,15,60,0.380487110925676, 6, 6,52
224,33.575915559174,22.823805578213,30, 6,60,44.4055772158352, 8,11,30
225,30.8911665267052,10.3567007385467, 8,15,30,62.3104796390009,29, 4,30
258,33.2629327506106,25.5186032728166,30, 8,15,38.9422851322512,17,19,45
259,30.5076712256392,12.8806819313555, 8,16,60,54.7306483849755,28,15,30
260,0.0,0.0, 1, 1,15,0.0, 1, 1,15
291,0.0,0.0, 1, 1,15,0.0, 1, 1,15
322,0.0,0.0, 1, 1,15,0.0, 1, 1,15
323,0.0,0.0, 1, 1,15,0.0, 1, 1,15
324,0.0,0.0, 1, 1,15,0.0, 1, 1,15
325,0.0,0.0, 1, 1,15,0.0, 1, 1,15
408,103312071.489162,0.0, 1, 1,15,166632.373369615, 1, 6,15
461,62089590.5136832,0.0, 1, 1,15,100144.500828521, 1, 6,15
4,181, 6
8,49769377.92989,7056.14999006004, 1, 8,15,23520.4999668668, 1, 1,15
9,29910931.5227683,4240.68027260416, 1, 8,15,14135.6009086805, 1, 1,15
71,33517463.4266029,0.0, 1, 1,15,42054.533784947, 1,19,15
93,20143682.6231235,0.0, 1, 1,15,25274.3822122002, 1,19,15
125,40516539.4065261,6007.79054070672, 1, 1,15,30038.9527035336, 1,18,15
137,24350061.9484398,3610.62603031431, 1, 1,15,18053.1301515715, 1,18,15
138,664886966.715308,0.0, 1, 1,15,1676378.88322106, 1, 8,60
139,0.0,0.0, 1, 1,15,0.0, 1, 1,15
140,38.5933831262249,29.230381986501,15, 7,15,50.1573015616098,10,11,60
141,38.0035036456308,31.3067384228772,15, 7,60,45.2071295537288,11,21,15
142,38.1303597807283,28.973990954811,15, 6,60,49.7891150782392,10,11,45
143,38.3618714534766,29.1022909350733,15, 6,60,49.9657591287549,10,11,45
144,37.6946380540014,31.1994917735143,15, 5,60,45.0861408331283,11,19,45
145,37.8490708498161,31.2859966908472,15, 8,15,45.1119883984566,11,20,60
146,163179660.251978,8468.83280923197,18, 8, 2,89573.3579192555,11,10,60
147,0.0,0.0, 1, 1,15,0.0, 1, 1,15
148,0.367699582780996,0.357789348852094,14,15,60,0.379174181082003, 3,10,37
149,97019430.1859901,4917.32963739177,18, 8, 2,53534.7985168426,12, 6,60
150,0.0,0.0, 1, 1,15,0.0, 1, 1,15
151,0.367206128830845,0.355808189027395,15,15,60,0.379822546888689,12, 3,37
224,38.1303597807283,28.973990954811,15, 6,60,49.7891150782392,10,11,45
225,33.6288409528449,10.6684783445697, 1,14,60,64.6617539588615,14, 5,60
258,37.6946380540014,31.1994917735143,15, 5,60,45.0861408331283,11,19,45
259,33.4979445871246,13.1721303312515, 8,16,60,57.46323894398,14, 5,60
260,0.0,0.0, 1, 1,15,0.0, 1, 1,15
291,0.0,0.0, 1, 1,15,0.0, 1, 1,15
322,0.0,0.0, 1, 1,15,0.0, 1, 1,15
323,0.0,0.0, 1, 1,15,0.0, 1, 1,15
324,0.0,0.0, 1, 1,15,0.0, 1, 1,15
325,0.0,0.0, 1, 1,15,0.0, 1, 1,15
408,99979424.0217693,0.0, 1, 1,15,166632.373369615, 1, 6,15
461,60086700.4971128,0.0, 1, 1,15,100144.500828521, 1, 6,15
4,212, 7
8,51754508.1270935,7056.14999006004, 1,15,15,23520.4999668668, 1, 1,15
9,31103976.2394609,4240.68027260416, 1,15,15,14135.6009086805, 1, 1,15
71,34379581.3691943,0.0, 1, 1,15,42054.533784947, 1,19,15
93,20661807.4584736,0.0, 1, 1,15,25274.3822122002, 1,19,15
125,41742128.6768303,6007.79054070672, 1, 1,15,30038.9527035336, 1,19,15
137,25086629.6586239,3610.62603031431, 1, 1,15,18053.1301515715, 1,19,15
138,513588678.684449,0.0, 1, 1,15,1453259.94717445,12, 9,30
139,0.0,0.0, 1, 1,15,0.0, 1, 1,15
140,27.8327622296485,24.0347318500769,12, 6,30,40.4928302582681, 1,12,30
141,26.1378232780042,24.5571173137413,17,22,15,35.8914229069872, 1,14,15
142,26.6687836116854,23.9347738796819, 2,14,15,40.2151614096842, 1,12,30
143,27.2507729206669,24.0759854313134,12, 4,30,40.3539958339762, 1,12,30
144,25.586500070233,23.9587422684985, 3,14,15,35.8339254454826, 1,13,60
145,25.8621616741186,24.2822032324112,17,21,60,35.8285954539013, 1,13,60
146,33488538.0889941,0.0, 1,14, 2,55496.118883796, 1,10,45
147,22999743.4694547,0.0, 1, 1,15,53015.2441708848,30,14,30
148,0.351556088301008,0.341420532088236,20,15,60,0.367037496647413, 1,10,22
149,14711501.5120607,0.0, 1,14, 2,33990.2741992549, 1, 3,60
150,13743017.8868415,0.0, 1, 1,15,30741.1458098199,30,14,45
151,0.350293545523997,0.34141498971075,20,15,60,0.365038277249745, 1, 1,15
224,26.6687836116854,23.3148253376714, 2,14, 5,40.2151614096842, 1,12,30
225,69.5726954960708,31.7826784544531,12,11,45,91.1383348761097, 2,14, 3
258,25.586500070233,23.5732960508463,26,14, 3,35.8339254454826, 1,13,60
259,73.2204388671766,45.5291152534357, 1,13,60,90.0570743902286, 2,14, 3
260,0.0,0.0, 1, 1,15,0.0, 1, 1,15
291,482811056.77457,0.0, 1, 1,15,2159779.98410813, 1,14,45
322,5.011682269184803E-006,0.0, 1, 1,15,2.087290340568870E-007, 1,14,45
323,0.0,0.0, 1, 1,15,0.0, 1, 1,15
324,178139371.767032,0.0, 1, 1,15,1107698.68317918, 1,14,45
325,1.263647959603986E-006,0.0, 1, 1,15,4.169464773440268E-008, 7,15,15
408,103312071.489162,0.0, 1, 1,15,166632.373369615, 1, 6,15
461,62089590.5136832,0.0, 1, 1,15,100144.500828521, 1, 6,15
4,243, 8
8,51378180.1276236,7056.14999006004, 1, 8,15,23520.4999668668, 1, 1,15
9,30877806.624922,4240.68027260416, 1, 8,15,14135.6009086805, 1, 1,15
71,34673963.1056889,0.0, 1, 1,15,42054.533784947, 1,19,15
93,20838728.133959,0.0, 1, 1,15,25274.3822122002, 1,19,15
125,41886315.6498073,6007.79054070672, 1, 1,15,30038.9527035336, 1,18,15
137,25173284.6833515,3610.62603031431, 1, 1,15,18053.1301515715, 1,18,15
138,638986241.569613,0.0, 1, 1,15,1478206.84498666,17, 9,30
139,0.0,0.0, 1, 1,15,0.0, 1, 1,15
140,28.5136606329862,23.2923708498075,26, 6,60,40.0455102796374, 7,12,15
141,26.2255830925671,24.5315336763893,26, 7,30,30.4504951181147, 7,14,15
142,27.126917952013,23.0888712755031,26, 6,60,40.0836925526413, 7,11,60
143,27.8202892924996,23.1906210626553,26, 6,60,40.0589627029891, 7,11,60
144,25.5888367399401,23.9401350586509,25,14,15,30.6086314467737, 7,13,60
145,25.9072099162536,24.3985988144449,25,21,60,30.4569233034921, 7,13,60
146,37839112.8417969,0.0, 1,14, 1,60602.4856449725,27,11,60
147,24681319.2114765,0.0, 1, 1,15,52446.8333892761, 7,16,15
148,0.351536824777802,0.339004872731367, 7,15,60,0.36503691914118,28,10,52
149,14784299.9680923,0.0, 1,13,45,20451.3472453809,28, 6,60
150,14815104.3962274,0.0, 1, 1,15,31304.135956463, 7,15,60
151,0.34974711812807,0.338996854787278, 7,15,60,0.35839737155557,28, 7, 7
224,27.126917952013,23.0888712755031,26, 6,60,40.0836925526413, 7,11,60
225,66.9464654306318,32.0306615124442,28,11,45,92.4558936723897, 2, 5,60
258,25.5888367399401,23.5231670570208,25,14, 5,30.6086314467737, 7,13,60
259,71.8816570919413,48.238220564955,30,13,60,93.2961984685088, 2, 5,60
260,0.0,0.0, 1, 1,15,0.0, 1, 1,15
291,572177518.266721,0.0, 1, 1,15,2017040.70294667, 7,14,45
322,6.362158160300169E-006,0.0, 1, 1,15,1.287162376684137E-007,14,15,30
323,0.0,0.0, 1, 1,15,0.0, 1, 1,15
324,198998438.184219,0.0, 1, 1,15,552534.454340453, 7,14,45
325,1.801461593231579E-006,0.0, 1, 1,15,4.276898835087195E-008,13,14,45
408,103312071.489162,0.0, 1, 1,15,166632.373369615, 1, 6,15
461,62089590.5136832,0.0, 1, 1,15,100144.500828521, 1, 6,15
4,273, 9
8,49957541.9296249,7056.14999006004, 1, 8,15,23520.4999668668, 1, 1,15
9,30024016.3300377,4240.68027260416, 1, 8,15,14135.6009086805, 1, 1,15
71,33370272.5583556,0.0, 1, 1,15,42054.533784947, 1,19,15
93,20055222.2853808,0.0, 1, 1,15,25274.3822122002, 1,19,15
125,40444445.9200376,6007.79054070672, 1, 1,15,30038.9527035336, 1,18,15
137,24306734.436076,3610.62603031431, 1, 1,15,18053.1301515715, 1,18,15
138,543404749.472664,0.0, 1, 1,15,1581908.07407833,16, 9,30
139,0.0,0.0, 1, 1,15,0.0, 1, 1,15
140,27.0391068843277,22.4377443567828,30, 7,30,36.8500291853625,10,11,45
141,25.5415635659539,23.927431139077,30, 7,60,28.758536504674, 7,14,15
142,25.9269352573053,22.1979132104265,30, 7,30,36.9427787256126,10,11,45
143,26.4830210708165,22.3178287836046,30, 7,30,36.8964039554876,10,11,45
144,25.0105598037209,23.7980560867166,30, 7,60,28.8805214555887, 7,13,60
145,25.2760616848374,23.8627436128968,30, 7,60,28.7589903973119, 7,13,60
146,57784668.2742921,0.0, 1,14, 2,58380.7820308375,16,11,15
147,2697863.92464279,0.0, 1, 1,15,24323.6530277818,20,18,60
148,0.355021164097991,0.342450448738049, 6,15,60,0.36885738353215,16,10,37
149,29537871.4079868,0.0, 1,14, 1,29688.6067784505,15,24,60
150,1649655.20626945,0.0, 1, 1,15,16053.9103009388,20,18,60
151,0.35394878092411,0.342453809947433, 6,15,60,0.362831606181469,30,24,60
224,25.9269352573053,22.1979132104265,30, 7,30,36.9427787256126,10,11,45
225,59.4467776931114,22.9473812584796,16,11,45,86.6869440564848, 9, 6,60
258,25.0105598037209,23.5554339495435,26,14, 3,28.8805214555887, 7,13,60
259,61.2941824899821,32.7900163448902,16,13,60,84.4287933278142, 9, 6,60
260,0.0,0.0, 1, 1,15,0.0, 1, 1,15
291,372253511.730838,0.0, 1, 1,15,1533769.14371776, 7,14,45
322,8.172358756224513E-006,0.0, 1, 1,15,1.088665158022195E-007,16,14,45
323,0.0,0.0, 1, 1,15,0.0, 1, 1,15
324,124958128.000445,0.0, 1, 1,15,383402.638891408, 7,14,45
325,2.437477681902514E-006,0.0, 1, 1,15,2.987690095324069E-008, 5,14,45
408,99979424.0217693,0.0, 1, 1,15,166632.373369615, 1, 6,15
461,60086700.4971128,0.0, 1, 1,15,100144.500828521, 1, 6,15
4,304,10
8,51566344.1273586,7056.14999006004, 1,15,15,23520.4999668668, 1, 1,15
9,30990891.4321915,4240.68027260416, 1,15,15,14135.6009086805, 1, 1,15
71,34526772.2374416,0.0, 1, 1,15,42054.533784947, 1,19,15
93,20750267.7962163,0.0, 1, 1,15,25274.3822122002, 1,19,15
125,41814222.1633188,6007.79054070672, 1, 1,15,30038.9527035336, 1,19,15
137,25129957.1709877,3610.62603031431, 1, 1,15,18053.1301515715, 1,19,15
138,406165423.939501,0.0, 1, 1,15,1374758.35080235, 1, 9,30
139,0.0,0.0, 1, 1,15,0.0, 1, 1,15
140,26.7222027851687,19.0835049946511,24, 7,30,38.1007563595747, 5,11,45
141,26.8610240882413,21.7649112142782,31,10,30,33.9342716236821, 5,21,45
142,26.4404393535829,19.9999999999999,24, 7,15,37.9352045957529, 5,11,30
143,26.5813210693758,19.5417524973255,24, 7,30,38.0171673563357, 5,11,30
144,26.7057583022425,21.3907741854733,31,10,30,33.9503712430881, 5,19,60
145,26.7833911952419,21.5778426998758,31,10,30,33.9144013495675, 5,19,60
146,120339270.190981,1113.81674949504,14,18,60,67284.0855177903,15,24,60
147,0.0,0.0, 1, 1,15,0.0, 1, 1,15
148,0.363431489669033,0.355334466679314,22,15,60,0.372714399776491, 5, 9,40
149,74664908.4211625,0.0,14,18,60,44065.8434876054,15,24,60
150,336.868286184896,0.0, 1, 1,15,336.868286184896,14,18,60
151,0.363766969152316,0.353346914289478,27,15,60,0.372123289738157,24, 6,60
224,26.4404393535829,19.9999999999999,24, 7,15,37.9352045957529, 5,11,30
225,36.9077262171292,15.8200558517252,19,15,15,67.7092350207974,28,24,30
258,26.7057583022425,21.3699561807993,31,10,15,33.9503712430881, 5,19,60
259,36.2102840272161,17.2236213276577,19,15,60,61.5578834871714,28,24,30
260,3450930.45657901,0.0, 1, 1,15,104985.059174007,24, 7,30
291,0.0,0.0, 1, 1,15,0.0, 1, 1,15
322,3450930.45657909,0.0, 1, 1,15,104985.059174008,24, 7,30
323,0.0,0.0, 1, 1,15,0.0, 1, 1,15
324,0.0,0.0, 1, 1,15,0.0, 1, 1,15
325,0.0,0.0, 1, 1,15,0.0, 1, 1,15
408,103312071.489162,0.0, 1, 1,15,166632.373369615, 1, 6,15
461,62089590.5136832,0.0, 1, 1,15,100144.500828521, 1, 6,15
4,334,11
8,49769377.92989,7056.14999006004, 1, 9,15,23520.4999668668, 1, 1,15
9,29910931.5227683,4240.68027260416, 1, 9,15,14135.6009086805, 1, 1,15
71,33517463.4266029,0.0, 1, 1,15,42054.533784947, 1,20,15
93,20143682.6231235,0.0, 1, 1,15,25274.3822122002, 1,20,15
125,40516539.4065261,6007.79054070672, 1, 1,15,30038.9527035336, 1,19,15
137,24350061.9484398,3610.62603031431, 1, 1,15,18053.1301515715, 1,19,15
138,232621556.17352,0.0, 1, 1,15,931197.80184718,12,10,15
139,0.0,0.0, 1, 1,15,0.0, 1, 1,15
140,19.9380383113441,17.5002650042453,27, 7,60,24.4167777007649, 7,15,45
141,20.6511796255698,19.5942237446158,27, 7,60,23.6010796159232, 7,23,60
142,20.5119819210785,19.9999999999998,27, 1,45,24.3558962191909, 7,15,30
143,20.2250101162113,18.7501325021226,27, 7,60,24.3853055263113, 7,15,30
144,20.6430311903009,19.9999999999999,23, 7,60,23.9130675821203, 7,22,60
145,20.6471054079354,19.7971118723079,27, 7,60,23.7508987913671, 7,23,60
146,121056042.502001,7713.07688275229, 6,10,18,81903.0417982241,30,24,60
147,0.0,0.0, 1, 1,15,0.0, 1, 1,15
148,0.365863091933656,0.35354976332739, 5,15,60,0.380917372204664,23, 8,60
149,73574266.6669133,4506.51756129843, 6,10,30,48113.889409111,23, 7,60
150,0.0,0.0, 1, 1,15,0.0, 1, 1,15
151,0.366026983398523,0.351844812161274, 6,15,60,0.380926507588829,23, 8,60
224,20.5119819210785,19.9999999999998,27, 1,45,24.3558962191909, 7,15,30
225,36.263136638916,15.5796700203257,23,13,30,60.6753500740822,19, 9,60
258,20.6430311903009,19.9999999999999,23, 7,60,23.9130675821203, 7,22,60
259,35.9047283911733,15.3915138896494,23,13,15,61.1085873003475,19,11,30
260,207051238.409778,0.0, 1,10,15,296373.327358141,27, 6,60
291,0.0,0.0, 1, 1,15,0.0, 1, 1,15
322,207051238.409783,0.0, 1,10,15,296373.327358141,27, 6,60
323,21330453.5410907,0.0, 1, 1,15,44103.4928781982,23, 6,60
324,0.0,0.0, 1, 1,15,0.0, 1, 1,15
325,21330453.7913958,0.0, 1, 1,15,44103.492878201,23, 6,60
408,99979424.0217693,0.0, 1, 1,15,166632.373369615, 1, 7,15
461,60086700.4971128,0.0, 1, 1,15,100144.500828521, 1, 7,15
4,365,12
8,51754508.1270935,7056.14999006004, 1, 9,15,23520.4999668668, 1, 1,15
9,31103976.2394609,4240.68027260416, 1, 9,15,14135.6009086805, 1, 1,15
71,34379581.3691943,0.0, 1, 1,15,42054.533784947, 1,20,15
93,20661807.4584736,0.0, 1, 1,15,25274.3822122002, 1,20,15
125,41742128.6768303,6007.79054070672, 1, 1,15,30038.9527035336, 1,19,15
137,25086629.6586239,3610.62603031431, 1, 1,15,18053.1301515715, 1,19,15
138,233054570.786648,0.0, 1, 1,15,949346.734588262,31, 9,60
139,0.0,0.0, 1, 1,15,0.0, 1, 1,15
140,18.7235980175682,17.1341970922978,18, 6,60,21.1250402073987,13,11,30
141,19.8415310964228,19.438545999077,17, 8,60,20.2452789733643,28,23,60
142,20.0081304213122,19.9999999999997,31, 9,45,20.7502199051574,25,11,15
143,19.3658642194402,18.5670985461489,18, 6,60,20.9149425726846,13,11,15
144,20.0083885391997,19.9999999999999,18, 6,45,20.4388924372304,28,20,60
145,19.9249598178112,19.7192729995385,17, 8,60,20.3126479024475,28,22,60
146,196343977.91254,29069.4958044027,11,15,60,111330.700020123,31, 9,60
147,0.0,0.0, 1, 1,15,0.0, 1, 1,15
148,0.376273017720721,0.361488959026511,29,15,60,0.394426467226533,31,24,60
149,118149372.882468,17549.7274781515,11,15,60,66685.3066473903,31, 9,60
150,0.0,0.0, 1, 1,15,0.0, 1, 1,15
151,0.376272200656428,0.361489924231013,29,15,60,0.394423022553167,31,24,60
224,20.0081304213122,19.9999999999997,31, 9,45,20.7502199051574,25,11,15
225,20.1941825613387,7.7467423378557,16,19,60,40.2515650497743,25, 4,30
258,20.0083885391997,19.9999999999999,18, 6,45,20.4388924372304,28,20,60
259,20.267957026038,7.39337731780624,16,19,60,40.8521437185445,25, 4,15
260,484453636.666863,0.0, 1,10,60,381801.482516407,18, 6,60
291,0.0,0.0, 1, 1,15,0.0, 1, 1,15
322,484453636.666874,0.0, 1,10,60,381801.482516418,18, 6,60
323,83054144.2139358,0.0, 6,20,15,71126.5872965101,17, 8,60
324,0.0,0.0, 1, 1,15,0.0, 1, 1,15
325,83054144.2139384,0.0, 6,20,15,71126.5872965101,17, 8,60
408,103312071.489162,0.0, 1, 1,15,166632.373369615, 1, 7,15
461,62089590.5136832,0.0, 1, 1,15,100144.500828521, 1, 7,15
End of Data
 Number of Records Written=         384
