Program Version,EnergyPlus, Version 8.4.0-09f5359d8a, YMD=2023.08.02 14:39
1,5,Environment Title[],Latitude[deg],Longitude[deg],Time Zone[],Elevation[m]
2,6,Day of Simulation[],Month[],Day of Month[],DST Indicator[1=yes 0=no],Hour[],StartMinute[],EndMinute[],DayType
3,3,Cumulative Day of Simulation[],Month[],Day of Month[],DST Indicator[1=yes 0=no],DayType  ! When Daily Report Variables Requested
4,2,Cumulative Days of Simulation[],Month[]  ! When Monthly Report Variables Requested
5,1,Cumulative Days of Simulation[] ! When Run Period Report Variables Requested
8,9,PERIM,Zone People Total Heating Energy [J] !Monthly  [Value,Min,Day,Hour,Minute,Max,Day,Hour,Minute]
9,9,CORE,Zone People Total Heating Energy [J] !Monthly  [Value,Min,Day,Hour,Minute,Max,Day,Hour,Minute]
71,9,PERIM,Zone Lights Electric Energy [J] !Monthly  [Value,Min,Day,Hour,Minute,Max,Day,Hour,Minute]
93,9,CORE,Zone Lights Electric Energy [J] !Monthly  [Value,Min,Day,Hour,Minute,Max,Day,Hour,Minute]
125,9,PERIM,Zone Electric Equipment Electric Energy [J] !Monthly  [Value,Min,Day,Hour,Minute,Max,Day,Hour,Minute]
137,9,CORE,Zone Electric Equipment Electric Energy [J] !Monthly  [Value,Min,Day,Hour,Minute,Max,Day,Hour,Minute]
138,9,PERIM,Zone Windows Total Transmitted Solar Radiation Energy [J] !Monthly  [Value,Min,Day,Hour,Minute,Max,Day,Hour,Minute]
139,9,CORE,Zone Windows Total Transmitted Solar Radiation Energy [J] !Monthly  [Value,Min,Day,Hour,Minute,Max,Day,Hour,Minute]
140,9,PERIM,Zone Mean Radiant Temperature [C] !Monthly [Value,Min,Day,Hour,Minute,Max,Day,Hour,Minute]
141,9,CORE,Zone Mean Radiant Temperature [C] !Monthly [Value,Min,Day,Hour,Minute,Max,Day,Hour,Minute]
142,9,PERIM,Zone Mean Air Temperature [C] !Monthly [Value,Min,Day,Hour,Minute,Max,Day,Hour,Minute]
143,9,PERIM,Zone Operative Temperature [C] !Monthly [Value,Min,Day,Hour,Minute,Max,Day,Hour,Minute]
144,9,CORE,Zone Mean Air Temperature [C] !Monthly [Value,Min,Day,Hour,Minute,Max,Day,Hour,Minute]
145,9,CORE,Zone Operative Temperature [C] !Monthly [Value,Min,Day,Hour,Minute,Max,Day,Hour,Minute]
146,9,PERIM,Zone Infiltration Total Heat Loss Energy [J] !Monthly  [Value,Min,Day,Hour,Minute,Max,Day,Hour,Minute]
147,9,PERIM,Zone Infiltration Total Heat Gain Energy [J] !Monthly  [Value,Min,Day,Hour,Minute,Max,Day,Hour,Minute]
148,9,PERIM,Zone Infiltration Air Change Rate [ach] !Monthly [Value,Min,Day,Hour,Minute,Max,Day,Hour,Minute]
149,9,CORE,Zone Infiltration Total Heat Loss Energy [J] !Monthly  [Value,Min,Day,Hour,Minute,Max,Day,Hour,Minute]
150,9,CORE,Zone Infiltration Total Heat Gain Energy [J] !Monthly  [Value,Min,Day,Hour,Minute,Max,Day,Hour,Minute]
151,9,CORE,Zone Infiltration Air Change Rate [ach] !Monthly [Value,Min,Day,Hour,Minute,Max,Day,Hour,Minute]
224,9,PERIM,Zone Air Temperature [C] !Monthly [Value,Min,Day,Hour,Minute,Max,Day,Hour,Minute]
225,9,PERIM,Zone Air Relative Humidity [%] !Monthly [Value,Min,Day,Hour,Minute,Max,Day,Hour,Minute]
258,9,CORE,Zone Air Temperature [C] !Monthly [Value,Min,Day,Hour,Minute,Max,Day,Hour,Minute]
259,9,CORE,Zone Air Relative Humidity [%] !Monthly [Value,Min,Day,Hour,Minute,Max,Day,Hour,Minute]
260,9,PERIM IDEAL LOADS AIR,Zone Ideal Loads Supply Air Total Heating Energy [J] !Monthly  [Value,Min,Day,Hour,Minute,Max,Day,Hour,Minute]
291,9,PERIM IDEAL LOADS AIR,Zone Ideal Loads Supply Air Total Cooling Energy [J] !Monthly  [Value,Min,Day,Hour,Minute,Max,Day,Hour,Minute]
322,9,PERIM IDEAL LOADS AIR,Zone Ideal Loads Zone Total Heating Energy [J] !Monthly  [Value,Min,Day,Hour,Minute,Max,Day,Hour,Minute]
323,9,CORE IDEAL LOADS AIR,Zone Ideal Loads Supply Air Total Heating Energy [J] !Monthly  [Value,Min,Day,Hour,Minute,Max,Day,Hour,Minute]
324,9,CORE IDEAL LOADS AIR,Zone Ideal Loads Supply Air Total Cooling Energy [J] !Monthly  [Value,Min,Day,Hour,Minute,Max,Day,Hour,Minute]
325,9,CORE IDEAL LOADS AIR,Zone Ideal Loads Zone Total Heating Energy [J] !Monthly  [Value,Min,Day,Hour,Minute,Max,Day,Hour,Minute]
408,9,DHW PERIM,Water Use Equipment Heating Energy [J] !Monthly  [Value,Min,Day,Hour,Minute,Max,Day,Hour,Minute]
461,9,DHW CORE,Water Use Equipment Heating Energy [J] !Monthly  [Value,Min,Day,Hour,Minute,Max,Day,Hour,Minute]
End of Data Dictionary
1,ARCHSIM,  37.57, 126.97,   9.00,  87.10
4,31, 1
8,51566344.127518,7056.14999008177, 1,16,15,23520.4999669392, 1, 1,15
9,30990891.4386354,4240.6802734859, 1,16,15,14135.6009116197, 1, 1,15
71,34526772.2375478,0.0, 1, 1,15,42054.5337850766, 1,20,15
93,20750267.8005309,0.0, 1, 1,15,25274.3822174553, 1,20,15
125,41814222.1634471,6007.79054072522, 1, 1,15,30038.9527036261, 1,20,15
137,25129957.1762128,3610.62603106505, 1, 1,15,18053.1301553252, 1,20,15
138,318836236.541069,0.0, 1, 1,15,1186259.99790293,30,15,30
139,0.0,0.0, 1, 1,15,0.0, 1, 1,15
140,19.0179286839888,17.1576508525262,14, 8,45,23.9466254445773,27,16,15
141,19.9506773117275,19.4594754298394,22, 8,60,20.8362988655419, 6,23,15
142,20.198722259122,19.9999999999998,30, 8,15,23.7775544525625,27,16,15
143,19.6083254715554,18.5788254262631,14, 8,45,23.8620899485699,27,16,15
144,20.0257171520454,19.9999999999999,31, 4,45,20.8797259787018, 6,20,60
145,19.9881972318864,19.7297377149197,22, 8,60,20.8174003889445, 6,20,60
146,215597368.564224,11715.4889740118, 6,14,20,109617.525144695,23, 6,60
147,0.0,0.0, 1, 1,15,0.0, 1, 1,15
148,0.379022719623177,0.362594379916047, 8,12,60,0.394178429165046,23, 6,60
149,128488621.300711,6246.20972881463, 6,14,35,65967.5332836218,23, 6,60
150,0.0,0.0, 1, 1,15,0.0, 1, 1,15
151,0.378803530174166,0.361625296995626, 6,15,60,0.394176601135052,23, 6,60
224,20.198722259122,19.9999999999998,30, 8,15,23.7775544525625,27,16,15
225,17.5920513607934,6.43726135350202,14,19,60,35.2708412635492, 2,22,30
258,20.0257171520454,19.9999999999999,31, 4,45,20.8797259787018, 6,20,60
259,17.6450500432913,6.19250281502728,14,19,60,34.7095632739254, 2,22,45
260,480053239.620203,0.0, 1,14,30,375657.367372669,14, 8,45
291,0.0,0.0, 1, 1,15,0.0, 1, 1,15
322,480053239.620213,0.0, 1,14,30,375657.367372669,14, 8,45
323,83820885.4165179,0.0, 1,20,15,68700.6694117423,15, 8,60
324,0.0,0.0, 1, 1,15,0.0, 1, 1,15
325,83820888.7902476,0.0, 1,20,15,68700.6694117447,15, 8,60
408,103312071.48948,0.0, 1, 1,15,166632.373370129, 1, 7,15
461,62089590.5265932,0.0, 1, 1,15,100144.500849344, 1, 7,15
4,59, 2
8,46551773.5345664,7056.14999008177, 1, 9,15,23520.4999669392, 1, 1,15
9,27977181.3242779,4240.6802734859, 1, 9,15,14135.6009116197, 1, 1,15
71,31204464.0685267,0.0, 1, 1,15,42054.5337850766, 1,20,15
93,18753591.6053519,0.0, 1, 1,15,25274.3822174553, 1,20,15
125,37776986.9200798,6007.79054072522, 1, 1,15,30038.9527036261, 1,19,15
137,22703616.483337,3610.62603106505, 1, 1,15,18053.1301553252, 1,19,15
138,384642346.867217,0.0, 1, 1,15,1471285.68790782,17,15,60
139,0.0,0.0, 1, 1,15,0.0, 1, 1,15
140,20.2059930688048,17.4760002936001, 4, 7,30,28.3885362268023,24,16,45
141,20.5743355320823,19.5433098685728, 4, 8,60,23.2781816159685,24,23,60
142,20.8666901423694,19.9999999999998,16,11,60,28.5416215462882,24,16,45
143,20.5363416055871,18.7380001468, 4, 7,30,28.4650788865453,24,16,45
144,20.4510450516559,19.9999999999999, 4, 1,30,23.1074078353143,24,20,60
145,20.5126902918691,19.7716549342864, 4, 8,60,23.1653888084784,24,22,60
146,176714141.821842,10458.1926730573,24,14, 5,100751.164508679, 8, 6,60
147,0.0,0.0, 1, 1,15,0.0, 1, 1,15
148,0.376021660679914,0.361013802625817,27,12,60,0.390426632578195, 8, 6,60
149,103910117.438657,5268.95553629814,28,15,50,60506.365001977, 8, 6,60
150,0.0,0.0, 1, 1,15,0.0, 1, 1,15
151,0.375505496439464,0.359309263503185,23,15,60,0.390427539956264, 8, 6,60
224,20.8666901423694,19.9999999999998,16,11,60,28.5607220625402,24,16,30
225,18.1282348848052,5.15571607931466,13,16,15,37.9663403230314, 3,22,15
258,20.4510450516559,19.9999999999999, 4, 1,30,23.1074078353143,24,20,60
259,18.1612770574098,6.14371077396103, 9,17,60,38.3739694921651, 3,21,60
260,287057726.827044,0.0, 1,14,45,329535.484961915, 8, 6,60
291,0.0,0.0, 1, 1,15,0.0, 1, 1,15
322,287057726.827051,0.0, 1,14,45,329535.484961924, 8, 6,60
323,41641540.1825257,0.0, 1,19,15,55988.7325593207,11, 8,60
324,0.0,0.0, 1, 1,15,0.0, 1, 1,15
325,41641543.6573056,0.0, 1,19,15,55988.7325593207,11, 8,60
408,93314129.0872724,0.0, 1, 1,15,166632.373370129, 1, 7,15
461,56080920.4756325,0.0, 1, 1,15,100144.500849344, 1, 7,15
4,90, 3
8,51378180.1277824,7056.14999008177, 1, 9,15,23520.4999669392, 1, 1,15
9,30877806.6313424,4240.6802734859, 1, 9,15,14135.6009116197, 1, 1,15
71,34673963.1057956,0.0, 1, 1,15,42054.5337850766, 1,20,15
93,20838728.138292,0.0, 1, 1,15,25274.3822174553, 1,20,15
125,41886315.6499358,6007.79054072522, 1, 1,15,30038.9527036261, 1,19,15
137,25173284.6885855,3610.62603106505, 1, 1,15,18053.1301553252, 1,19,15
138,572768024.097096,0.0, 1, 1,15,1586134.89906414,15,16,15
139,0.0,0.0, 1, 1,15,0.0, 1, 1,15
140,22.9441240008146,18.0614037954068, 2, 7,30,32.5901512746024,19,16,60
141,22.7789130562681,19.9231963236414, 9,12,30,26.7092939935205,19,24,30
142,22.7416944971627,19.9999999999999,28, 7,15,32.7672752297108,19,17,15
143,22.8429092489887,19.0307018977034, 2, 7,30,32.6772475553832,19,16,60
144,22.4583749916392,19.9999999999999, 2,10,30,26.668148519203,19,23,60
145,22.6186440239537,19.9615981618207, 9,12,30,26.6849903561148,19,23,60
146,164551054.771288,8149.71574220811,30,14,20,82981.665179429, 8, 6,60
147,0.0,0.0, 1, 1,15,0.0, 1, 1,15
148,0.371105282669317,0.358693871997455,30,13,15,0.383428797694055, 8, 6,60
149,97376850.2564186,3608.55848181187,19,15,48,52053.4837966362, 6, 3,60
150,0.0,0.0, 1, 1,15,0.0, 1, 1,15
151,0.370773156234838,0.357169353041302,19,15,60,0.38352970455684, 8, 3,60
224,22.7416944971627,19.9999999999999,28, 7,15,32.7672752297108,19,17,15
225,21.6894436572997,6.10204087917644, 7,16,45,37.7563260852296,13, 3,30
258,22.4583749916392,19.9999999999999, 2,10,30,26.668148519203,19,23,60
259,21.4917197313405,8.11857884744109, 7,17,60,34.1168282291753, 2, 2,45
260,70789315.3244894,0.0, 1, 1,15,223330.903830819, 9, 6,60
291,0.0,0.0, 1, 1,15,0.0, 1, 1,15
322,70789315.324491,0.0, 1, 1,15,223330.903830834, 9, 6,60
323,2888552.89354592,0.0, 1, 1,15,30489.3661209913, 9, 6,60
324,0.0,0.0, 1, 1,15,0.0, 1, 1,15
325,2888554.23640856,0.0, 1, 1,15,30489.3661209914, 9, 6,60
408,103312071.48948,0.0, 1, 1,15,166632.373370129, 1, 7,15
461,62089590.5265932,0.0, 1, 1,15,100144.500849344, 1, 7,15
4,120, 4
8,50145705.9295148,7056.14999008177, 1,15,15,23520.4999669392, 1, 1,15
9,30137101.1435735,4240.6802734859, 1,15,15,14135.6009116197, 1, 1,15
71,33223081.6902104,0.0, 1, 1,15,42054.5337850766, 1,19,15
93,19966761.9517898,0.0, 1, 1,15,25274.3822174553, 1,19,15
125,40372352.4336731,6007.79054072522, 1, 1,15,30038.9527036261, 1,19,15
137,24263406.9287572,3610.62603106505, 1, 1,15,18053.1301553252, 1,19,15
138,567640852.27816,0.0, 1, 1,15,1593170.3810349, 2,16,45
139,0.0,0.0, 1, 1,15,0.0, 1, 1,15
140,27.1631487469892,18.8682846327471,26, 6,60,40.3391684497931,12,18,15
141,26.8624292026685,20.7792072830083,27,11,60,34.5240305301564,12,23,15
142,26.7837535860952,19.9999999999999, 1, 6,45,40.3437661687345,12,17,45
143,26.9734511665422,19.4341423163735,26, 6,60,40.3148970255991,12,18,15
144,26.5936516805924,20.4959931436329,26,11,45,34.2575914208501,12,21,60
145,26.7280404416305,20.6477567305186,26,13,30,34.3686895249343,12,22,60
146,145437980.373135,7453.20473729945, 8,15,48,91131.2945612698,11,22,60
147,0.0,0.0, 1, 1,15,0.0, 1, 1,15
148,0.36771607531344,0.355152930801713,19,12,60,0.376058982898793, 2,19, 7
149,86404412.3268822,1953.5030113505, 8,15,48,53245.6895425627,13, 2,60
150,0.0,0.0, 1, 1,15,0.0, 1, 1,15
151,0.367515847379584,0.355078462631275,19,12,60,0.375954965346999, 1, 2,60
224,26.7837535860952,19.9999999999999, 1, 6,45,40.3437661687345,12,17,45
225,29.4638578610597,9.36012610105072,18,17, 7,59.5465357860797,25, 3,45
258,26.5936516805924,20.4959931436329,26,11,45,34.2575914208501,12,21,60
259,28.8170995530798,13.9207067434023,18,18, 7,53.2306994165508,25, 1,60
260,8399758.45958779,0.0, 1, 1,15,128848.643387697, 1, 7,30
291,0.0,0.0, 1, 1,15,0.0, 1, 1,15
322,8399758.459588,0.0, 1, 1,15,128848.643387697, 1, 7,30
323,0.0,0.0, 1, 1,15,0.0, 1, 1,15
324,0.0,0.0, 1, 1,15,0.0, 1, 1,15
325,0.0,0.0, 1, 1,15,0.0, 1, 1,15
408,99979424.0220776,0.0, 1, 1,15,166632.373370129, 1, 6,15
461,60086700.5096063,0.0, 1, 1,15,100144.500849344, 1, 6,15
4,151, 5
8,51378180.1277824,7056.14999008177, 1, 8,15,23520.4999669392, 1, 1,15
9,30877806.6313424,4240.6802734859, 1, 8,15,14135.6009116197, 1, 1,15
71,34673963.1057956,0.0, 1, 1,15,42054.5337850766, 1,19,15
93,20838728.138292,0.0, 1, 1,15,25274.3822174553, 1,19,15
125,41886315.6499358,6007.79054072522, 1, 1,15,30038.9527036261, 1,18,15
137,25173284.6885855,3610.62603106505, 1, 1,15,18053.1301553252, 1,18,15
138,610721884.28502,0.0, 1, 1,15,1382523.73040452, 5,16,45
139,0.0,0.0, 1, 1,15,0.0, 1, 1,15
140,32.0525168268448,22.9213331710963,30, 6,60,45.4397077360426,25,18,30
141,31.7048452530946,25.2589428459625,30,11,60,38.9158482399696,25,24,15
142,31.6433743178823,22.6979480489149,30, 6,60,45.7064708344775,25,18,30
143,31.8479455723635,22.8096406100056,30, 6,60,45.57308928526,25,18,30
144,31.4367174669245,25.1868860279337,30,11,30,38.7936317453939,25,22,60
145,31.5707813600096,25.2245289645532,30,11,30,38.8188029613764,25,22,60
146,151859969.516851,6326.68539285732,31,14,35,92983.5889982092, 8, 1,60
147,0.0,0.0, 1, 1,15,0.0, 1, 1,15
148,0.366580317666356,0.353851800464056,30,13,45,0.374960025741328,17,23, 7
149,90778795.2879815,0.0,11,18,60,57851.5950045516,17, 5,60
150,1099.70406958713,0.0, 1, 1,15,599.073545504467,11,18,60
151,0.36636064555409,0.351547467393826,30,15,60,0.376973932720628, 6, 6,60
224,31.6433743178823,22.6979480489149,30, 6,60,45.7064708344775,25,18,30
225,33.202458495752,10.5130292950976, 8,17,37,62.1335382013046,29, 4,30
258,31.4367174669245,25.1868860279337,30,11,30,38.7936317453939,25,22,60
259,32.5685246274401,16.3981876416654, 8,17,10,55.3365295160469,28,15,30
260,0.0,0.0, 1, 1,15,0.0, 1, 1,15
291,0.0,0.0, 1, 1,15,0.0, 1, 1,15
322,0.0,0.0, 1, 1,15,0.0, 1, 1,15
323,0.0,0.0, 1, 1,15,0.0, 1, 1,15
324,0.0,0.0, 1, 1,15,0.0, 1, 1,15
325,0.0,0.0, 1, 1,15,0.0, 1, 1,15
408,103312071.48948,0.0, 1, 1,15,166632.373370129, 1, 6,15
461,62089590.5265932,0.0, 1, 1,15,100144.500849344, 1, 6,15
4,181, 6
8,49769377.9300438,7056.14999008177, 1, 8,15,23520.4999669392, 1, 1,15
9,29910931.5289876,4240.6802734859, 1, 8,15,14135.6009116197, 1, 1,15
71,33517463.426706,0.0, 1, 1,15,42054.5337850766, 1,19,15
93,20143682.6273119,0.0, 1, 1,15,25274.3822174553, 1,19,15
125,40516539.4066505,6007.79054072522, 1, 1,15,30038.9527036261, 1,18,15
137,24350061.9535027,3610.62603106505, 1, 1,15,18053.1301553252, 1,18,15
138,576464639.984945,0.0, 1, 1,15,1322283.30923894, 1,16,60
139,0.0,0.0, 1, 1,15,0.0, 1, 1,15
140,36.7854165400698,29.0412967121883,15, 7,15,48.5036142495312, 9,18,30
141,36.3315481050496,30.7798660567472,15,12,15,42.0130726920565, 9,23,60
142,36.3816766403644,28.8059397004178,15, 6,60,48.7361231163616, 9,18,30
143,36.5835465902171,28.9293799807136,15, 6,60,48.6198686829464, 9,18,30
144,36.0609394558734,30.6984387085317,15,11,45,41.8118511094842, 9,22,60
145,36.1962437804615,30.7405069248669,15,11,45,41.8933296465495, 9,22,60
146,149379925.427251,6337.8291612511, 1,15,50,76541.4240968005, 1, 4,45
147,0.0,0.0, 1, 1,15,0.0, 1, 1,15
148,0.365710712065582,0.354727863269084,15,13,30,0.3742966394054, 7,18,20
149,88986187.6862492,1165.84626575823, 1,15,50,49380.8740195462, 8, 3,60
150,0.0,0.0, 1, 1,15,0.0, 1, 1,15
151,0.365349521482989,0.353079548098588,15,15,60,0.375634809829675,12, 6,45
224,36.3816766403644,28.8059397004178,15, 6,60,48.7361231163616, 9,18,30
225,35.8885332432601,11.4674202617857, 8,17,52,64.0587957686828,15, 6,60
258,36.0609394558734,30.6984387085317,15,11,45,41.8118511094842, 9,22,60
259,35.7589596681938,17.2092254907957, 1,15,10,58.359100488998,14, 5,60
260,0.0,0.0, 1, 1,15,0.0, 1, 1,15
291,0.0,0.0, 1, 1,15,0.0, 1, 1,15
322,0.0,0.0, 1, 1,15,0.0, 1, 1,15
323,0.0,0.0, 1, 1,15,0.0, 1, 1,15
324,0.0,0.0, 1, 1,15,0.0, 1, 1,15
325,0.0,0.0, 1, 1,15,0.0, 1, 1,15
408,99979424.0220776,0.0, 1, 1,15,166632.373370129, 1, 6,15
461,60086700.5096063,0.0, 1, 1,15,100144.500849344, 1, 6,15
4,212, 7
8,51754508.1272535,7056.14999008177, 1,15,15,23520.4999669392, 1, 1,15
9,31103976.2459283,4240.6802734859, 1,15,15,14135.6009116197, 1, 1,15
71,34379581.3693,0.0, 1, 1,15,42054.5337850766, 1,19,15
93,20661807.4627698,0.0, 1, 1,15,25274.3822174553, 1,19,15
125,41742128.6769584,6007.79054072522, 1, 1,15,30038.9527036261, 1,19,15
137,25086629.66384,3610.62603106505, 1, 1,15,18053.1301553252, 1,19,15
138,475513595.400445,0.0, 1, 1,15,1166642.96609712, 6,16,45
139,0.0,0.0, 1, 1,15,0.0, 1, 1,15
140,26.9866972421322,24.1907176543192,18, 2,15,34.1228616134448, 1,14,15
141,25.8803582174521,24.5115864185133,17,22,15,34.6536823169938, 1, 1,15
142,25.7699284227176,23.9369641712376, 2,14,15,33.7104526488021, 1,13,60
143,26.3783128324249,24.1291398972023,17,21,60,33.7776325430685, 1,13,60
144,25.4647645574936,23.9657691850535,18,14,15,34.2534172971212, 1, 1,15
145,25.6725613874728,24.2586378866706,17,21,60,34.4535498070575, 1, 1,15
146,25798692.4456697,0.0, 1,14, 2,47901.949205385, 1, 1,15
147,22823357.2902993,0.0, 1, 1,15,50827.3860264925,30,14,45
148,0.350527052671475,0.341469368508264,20,15,60,0.362153385958613, 1, 1,60
149,14097213.8433154,0.0, 1,14, 2,31976.5887020979, 1, 3,60
150,13562282.922367,0.0, 1, 1,15,29593.3652327714,31,15,60
151,0.350169613231434,0.341461537241828,20,15,60,0.364007200972014, 1, 3,60
224,25.7699284227176,23.3324285274712, 2,14, 5,33.7104526488021, 1,13,60
225,72.2510784694468,50.1597013604126, 1,13,60,91.243726629351, 2,14, 3
258,25.4647645574936,23.327696939608, 1,14, 3,34.2534172971212, 1, 1,15
259,73.6425794403055,49.6824587580417, 1, 1,15,89.9933725386978, 2,14, 3
260,0.0,0.0, 1, 1,15,0.0, 1, 1,15
291,507430490.291065,0.0, 1, 1,15,1312755.4518241, 1,14,45
322,4.093644463409873E-006,0.0, 1, 1,15,1.238049662788399E-007, 1,14,45
323,0.0,0.0, 1, 1,15,0.0, 1, 1,15
324,139877077.771078,0.0, 1, 1,15,815599.835121106, 1,14,45
325,7.729931894573383E-007,0.0, 1, 1,15,4.399680619826540E-008, 1,16,45
408,103312071.48948,0.0, 1, 1,15,166632.373370129, 1, 6,15
461,62089590.5265932,0.0, 1, 1,15,100144.500849344, 1, 6,15
4,243, 8
8,51378180.1277824,7056.14999008177, 1, 8,15,23520.4999669392, 1, 1,15
9,30877806.6313424,4240.6802734859, 1, 8,15,14135.6009116197, 1, 1,15
71,34673963.1057956,0.0, 1, 1,15,42054.5337850766, 1,19,15
93,20838728.138292,0.0, 1, 1,15,25274.3822174553, 1,19,15
125,41886315.6499357,6007.79054072522, 1, 1,15,30038.9527036261, 1,18,15
137,25173284.6885855,3610.62603106505, 1, 1,15,18053.1301553252, 1,18,15
138,558510671.279711,0.0, 1, 1,15,1389667.55935954,30,16,30
139,0.0,0.0, 1, 1,15,0.0, 1, 1,15
140,27.2207443356391,23.1496003720317,26, 7,30,31.662645469996,30,16,45
141,25.8305784226662,24.3818492162405,26, 8,30,27.6361213881414, 7,14,15
142,25.8215100498755,22.9688276912435,26, 7,15,30.8765883688069, 7,13,60
143,26.5211271927573,23.0627551469106,26, 7,15,30.7599935073771, 7,13,60
144,25.3962060146057,23.9139500587805,25,14,15,27.9151686054808, 7,13,60
145,25.6133922186359,24.3515846824409,25,21,60,27.7446878430621, 7,13,60
146,26420437.2342918,0.0, 1,14, 1,33152.7538799361,28, 6,60
147,24461583.930505,0.0, 1, 1,15,52471.0457994445, 7,15,60
148,0.350019152159485,0.339054076114529, 7,15,60,0.357769220068691,28, 6,60
149,14000135.3394431,0.0, 1,13,15,20832.4052249867,28, 6,60
150,14683743.7514334,0.0, 1, 1,15,30920.5872551836, 7,15,60
151,0.349522970284923,0.339041635564402, 7,15,60,0.358466652161675,28, 6,60
224,25.8215100498755,22.9688276912435,26, 7,15,30.8765883688069, 7,13,60
225,70.7711989746348,47.0760389569532,30,13,60,91.1372715672207, 2, 5,60
258,25.3962060146057,23.5639128438335,15,14, 3,27.9151686054808, 7,13,60
259,72.6365596096745,54.5305358996626,27,22,30,92.4275352096952, 2, 5,60
260,0.0,0.0, 1, 1,15,0.0, 1, 1,15
291,586848193.140255,0.0, 1, 1,15,1094653.16808085, 7,17,30
322,6.220167224119615E-006,0.0, 1, 1,15,1.345483724435326E-007,13,15,15
323,0.0,0.0, 1, 1,15,0.0, 1, 1,15
324,144183261.181626,0.0, 1, 1,15,298971.05616005, 7,14, 1
325,7.645466514428666E-007,0.0, 1, 1,15,2.243325525341788E-008,10,14,60
408,103312071.48948,0.0, 1, 1,15,166632.373370129, 1, 6,15
461,62089590.5265932,0.0, 1, 1,15,100144.500849344, 1, 6,15
4,273, 9
8,49957541.9297793,7056.14999008177, 1, 8,15,23520.4999669392, 1, 1,15
9,30024016.3362806,4240.6802734859, 1, 8,15,14135.6009116197, 1, 1,15
71,33370272.5584582,0.0, 1, 1,15,42054.5337850766, 1,19,15
93,20055222.2895508,0.0, 1, 1,15,25274.3822174553, 1,19,15
125,40444445.9201618,6007.79054072522, 1, 1,15,30038.9527036261, 1,18,15
137,24306734.4411299,3610.62603106505, 1, 1,15,18053.1301553252, 1,18,15
138,497499136.341523,0.0, 1, 1,15,1489298.26173072,22,16,15
139,0.0,0.0, 1, 1,15,0.0, 1, 1,15
140,25.9410748307224,22.4866957726418,30, 7,30,31.7543533344642, 6,16,45
141,25.1706428860816,23.9070908102583,30, 8,60,26.3916462698346, 7,14,15
142,24.7296546575197,22.2415781630835,30, 7,30,29.2561164932605, 7,13,60
143,25.3353647441211,22.3641369678627,30, 7,30,29.2034497422126, 7,13,60
144,24.818876078645,23.8086724363264,30, 7,60,26.6092844760514, 7,13,60
145,24.9947594823633,23.8743607380894,30, 7,60,26.4709723975255, 7,13,60
146,46955184.476638,0.0, 1,14, 1,49485.5307248038,15,24,60
147,2820391.58782304,0.0, 1, 1,15,25701.7531409999,20,18,60
148,0.353635075447652,0.342500737176076, 6,15,60,0.361773675868054,30,24,60
149,28426154.3779307,0.0, 1,13,30,29572.4857839115,15,24,60
150,1624999.46217062,0.0, 1, 1,15,16884.5892711328,20,18,60
151,0.353746993271704,0.342507717678007, 6,15,60,0.362704841770448,30,24,60
224,24.7296546575197,22.2415781630835,30, 7,30,29.3607510164936, 7,13,60
225,62.2298252515644,33.6317248135782,16,13,60,85.0205777456894,29, 5,60
258,24.818876078645,23.5847075239283, 1,14, 3,26.6214699157381, 7,13,60
259,61.7439959806662,37.1270236747275,16,22,30,83.681891284953, 9, 6,60
260,0.0,0.0, 1, 1,15,0.0, 1, 1,15
291,421456450.253498,0.0, 1, 1,15,1105219.32210677, 6,16,45
322,8.509448270523855E-006,0.0, 1, 1,15,1.154148776549846E-007, 6,16,60
323,0.0,0.0, 1, 1,15,0.0, 1, 1,15
324,83500614.5947493,0.0, 1, 1,15,182904.216152479, 7,14,45
325,1.616888725880866E-006,0.0, 1, 1,15,1.487450163040194E-008, 9,18,60
408,99979424.0220776,0.0, 1, 1,15,166632.373370129, 1, 6,15
461,60086700.5096063,0.0, 1, 1,15,100144.500849344, 1, 6,15
4,304,10
8,51566344.127518,7056.14999008177, 1,15,15,23520.4999669392, 1, 1,15
9,30990891.4386354,4240.6802734859, 1,15,15,14135.6009116197, 1, 1,15
71,34526772.2375478,0.0, 1, 1,15,42054.5337850766, 1,19,15
93,20750267.8005309,0.0, 1, 1,15,25274.3822174553, 1,19,15
125,41814222.1634471,6007.79054072522, 1, 1,15,30038.9527036261, 1,19,15
137,25129957.1762128,3610.62603106505, 1, 1,15,18053.1301553252, 1,19,15
138,435496973.57508,0.0, 1, 1,15,1418550.51754225,15,15,30
139,0.0,0.0, 1, 1,15,0.0, 1, 1,15
140,27.2794850330842,19.5895739693136,24, 7,30,36.609763681839, 9,16,30
141,27.3126816983631,21.8106165114519,31,13,45,32.1307413274697, 9,22,60
142,26.9828544756333,20.,24, 7,30,36.7077223237376, 9,16,30
143,27.1311697543588,19.7947869846568,24, 7,30,36.6587430027883, 9,16,30
144,27.1330023224231,21.4786902310456,31,13,45,32.069678635727, 9,21,60
145,27.2228420103931,21.6446533712488,31,13,45,32.0671687908661, 9,21,60
146,126937687.6105,6385.138345596,17,13,50,80234.0951715074,15,24,60
147,0.0,0.0, 1, 1,15,0.0, 1, 1,15
148,0.364148735665379,0.354596528942232, 2,12,60,0.372794872928809,18,21,22
149,77470336.320067,2649.17435066705,14,18,60,49544.7189701464,15,24,60
150,0.0,0.0, 1, 1,15,0.0, 1, 1,15
151,0.364352603419538,0.353533958738506,27,15,60,0.375425635828364,19, 3,22
224,26.9828544756333,20.,24, 7,30,36.7077223237376, 9,16,30
225,36.3414510130005,11.4054513944049,19,15,60,65.0275144282018,28,24,30
258,27.1330023224231,21.4784101217324,31,13,37,32.069678635727, 9,21,60
259,35.542353977923,15.8926467499186,19,16,30,58.3223524077475,28,24,30
260,2425702.2295655,0.0, 1, 1,15,73272.0581351126,24, 7,30
291,0.0,0.0, 1, 1,15,0.0, 1, 1,15
322,2425702.22956557,0.0, 1, 1,15,73272.058135119,24, 7,30
323,0.0,0.0, 1, 1,15,0.0, 1, 1,15
324,0.0,0.0, 1, 1,15,0.0, 1, 1,15
325,0.0,0.0, 1, 1,15,0.0, 1, 1,15
408,103312071.48948,0.0, 1, 1,15,166632.373370129, 1, 6,15
461,62089590.5265932,0.0, 1, 1,15,100144.500849344, 1, 6,15
4,334,11
8,49769377.9300438,7056.14999008177, 1, 9,15,23520.4999669392, 1, 1,15
9,29910931.5289876,4240.6802734859, 1, 9,15,14135.6009116197, 1, 1,15
71,33517463.426706,0.0, 1, 1,15,42054.5337850766, 1,20,15
93,20143682.6273119,0.0, 1, 1,15,25274.3822174553, 1,20,15
125,40516539.4066504,6007.79054072522, 1, 1,15,30038.9527036261, 1,19,15
137,24350061.9535027,3610.62603106505, 1, 1,15,18053.1301553252, 1,19,15
138,303378788.96172,0.0, 1, 1,15,1125706.85829162, 6,15,15
139,0.0,0.0, 1, 1,15,0.0, 1, 1,15
140,20.8328834584637,17.5104347741404,27, 7,60,28.7357097176315, 6,15,60
141,21.3463250115995,19.6143603863262,27, 7,60,25.4328496495399, 7,23,60
142,21.2082715280201,19.9999999999998,22, 6,45,29.0628343410481, 6,15,60
143,21.0205774932419,18.7552173870703,27, 7,60,28.8992720293398, 6,15,60
144,21.2637898309798,19.9999999999999,23,10,45,25.6493880028838, 7,22,60
145,21.3050574212897,19.8071801931631,27, 7,60,25.5364071056821, 7,23,60
146,128408681.293993,4360.73385129118, 7,13,35,81688.7558875633,30,24,60
147,0.0,0.0, 1, 1,15,0.0, 1, 1,15
148,0.366778538698008,0.35536833421044, 6,12,60,0.38098309666993,23, 8,60
149,77575040.1409214,2212.01764667906, 7,13,50,48189.9462397077,23, 7,60
150,0.0,0.0, 1, 1,15,0.0, 1, 1,15
151,0.366856394280471,0.353232966741286, 6,15,30,0.380992590127058,23, 8,60
224,21.2082715280201,19.9999999999998,22, 6,45,29.0628343410481, 6,15,60
225,35.1287383352808,15.1497430994813,27,15,45,62.3790417544079,19,12,15
258,21.2637898309798,19.9999999999999,23,10,45,25.6493880028838, 7,22,60
259,34.7335736104034,15.3845607661073,23,13,15,60.6819284025334,19,12,45
260,169816910.421733,0.0, 1, 1,15,295162.127799716,27, 6,60
291,0.0,0.0, 1, 1,15,0.0, 1, 1,15
322,169816910.421738,0.0, 1, 1,15,295162.127799716,27, 6,60
323,16311150.8619429,0.0, 1, 1,15,41674.59463377,27, 6,60
324,0.0,0.0, 1, 1,15,0.0, 1, 1,15
325,16311152.5977928,0.0, 1, 1,15,41674.59463377,27, 6,60
408,99979424.0220776,0.0, 1, 1,15,166632.373370129, 1, 7,15
461,60086700.5096063,0.0, 1, 1,15,100144.500849344, 1, 7,15
4,365,12
8,51754508.1272535,7056.14999008177, 1, 9,15,23520.4999669392, 1, 1,15
9,31103976.2459283,4240.6802734859, 1, 9,15,14135.6009116197, 1, 1,15
71,34379581.3693,0.0, 1, 1,15,42054.5337850766, 1,20,15
93,20661807.4627698,0.0, 1, 1,15,25274.3822174553, 1,20,15
125,41742128.6769584,6007.79054072522, 1, 1,15,30038.9527036261, 1,19,15
137,25086629.66384,3610.62603106505, 1, 1,15,18053.1301553252, 1,19,15
138,276806971.964619,0.0, 1, 1,15,943864.167407728, 5,14,60
139,0.0,0.0, 1, 1,15,0.0, 1, 1,15
140,18.9744764792588,17.1741108288537,16, 8,30,23.2043987377275, 4,15,45
141,19.9293885168796,19.4689297015368,31, 8,60,20.5571748113324,28,23,60
142,20.1356687410681,19.9999999999998,31, 3,30,22.9704771894626, 4,15,30
143,19.5550726101634,18.5870554144269,16, 8,30,23.069940397916, 4,15,30
144,20.0250733632477,19.9999999999999,17, 5,45,20.7135934027011,28,20,60
145,19.9772309400636,19.7344648507684,31, 8,60,20.6147646031315,28,22,60
146,198390379.995591,17433.1357343622,29,14,37,111541.639545595,31, 9,60
147,0.0,0.0, 1, 1,15,0.0, 1, 1,15
148,0.376498032332767,0.36322384496711,29,14,15,0.394497486510873,31,24,60
149,118570472.025967,9764.07600127073,29,15,30,66782.8459515692,31, 9,60
150,0.0,0.0, 1, 1,15,0.0, 1, 1,15
151,0.376359119380874,0.36154869653952,29,15,60,0.394493155428145,31,24,60
224,20.1356687410681,19.9999999999998,31, 3,30,22.9704771894626, 4,15,30
225,20.2130578683183,7.59367352083456,16,19,60,40.2595240276205,25, 4,30
258,20.0250733632477,19.9999999999999,17, 5,45,20.7135934027011,28,20,60
259,20.2786510817829,7.39120267008185,16,19,60,40.8471609804309,25, 4,15
260,450058474.785721,0.0, 1,13,60,374240.264225509,16, 8,30
291,0.0,0.0, 1, 1,15,0.0, 1, 1,15
322,450058474.786915,0.0, 1,13,60,374240.264225509,16, 8,30
323,76091754.9943607,0.0, 1,19,15,69142.6142241444,17, 8,60
324,0.0,0.0, 1, 1,15,0.0, 1, 1,15
325,76091757.2278706,0.0, 1,19,15,69142.6142241463,17, 8,60
408,103312071.48948,0.0, 1, 1,15,166632.373370129, 1, 7,15
461,62089590.5265932,0.0, 1, 1,15,100144.500849344, 1, 7,15
End of Data
 Number of Records Written=         384
