Program Version,EnergyPlus, Version 8.4.0-09f5359d8a, YMD=2023.08.02 14:39
1,5,Environment Title[],Latitude[deg],Longitude[deg],Time Zone[],Elevation[m]
2,6,Day of Simulation[],Month[],Day of Month[],DST Indicator[1=yes 0=no],Hour[],StartMinute[],EndMinute[],DayType
3,3,Cumulative Day of Simulation[],Month[],Day of Month[],DST Indicator[1=yes 0=no],DayType  ! When Daily Report Variables Requested
4,2,Cumulative Days of Simulation[],Month[]  ! When Monthly Report Variables Requested
5,1,Cumulative Days of Simulation[] ! When Run Period Report Variables Requested
8,9,PERIM,Zone People Total Heating Energy [J] !Monthly  [Value,Min,Day,Hour,Minute,Max,Day,Hour,Minute]
9,9,CORE,Zone People Total Heating Energy [J] !Monthly  [Value,Min,Day,Hour,Minute,Max,Day,Hour,Minute]
71,9,PERIM,Zone Lights Electric Energy [J] !Monthly  [Value,Min,Day,Hour,Minute,Max,Day,Hour,Minute]
93,9,CORE,Zone Lights Electric Energy [J] !Monthly  [Value,Min,Day,Hour,Minute,Max,Day,Hour,Minute]
125,9,PERIM,Zone Electric Equipment Electric Energy [J] !Monthly  [Value,Min,Day,Hour,Minute,Max,Day,Hour,Minute]
137,9,CORE,Zone Electric Equipment Electric Energy [J] !Monthly  [Value,Min,Day,Hour,Minute,Max,Day,Hour,Minute]
138,9,PERIM,Zone Windows Total Transmitted Solar Radiation Energy [J] !Monthly  [Value,Min,Day,Hour,Minute,Max,Day,Hour,Minute]
139,9,CORE,Zone Windows Total Transmitted Solar Radiation Energy [J] !Monthly  [Value,Min,Day,Hour,Minute,Max,Day,Hour,Minute]
140,9,PERIM,Zone Mean Radiant Temperature [C] !Monthly [Value,Min,Day,Hour,Minute,Max,Day,Hour,Minute]
141,9,CORE,Zone Mean Radiant Temperature [C] !Monthly [Value,Min,Day,Hour,Minute,Max,Day,Hour,Minute]
142,9,PERIM,Zone Mean Air Temperature [C] !Monthly [Value,Min,Day,Hour,Minute,Max,Day,Hour,Minute]
143,9,PERIM,Zone Operative Temperature [C] !Monthly [Value,Min,Day,Hour,Minute,Max,Day,Hour,Minute]
144,9,CORE,Zone Mean Air Temperature [C] !Monthly [Value,Min,Day,Hour,Minute,Max,Day,Hour,Minute]
145,9,CORE,Zone Operative Temperature [C] !Monthly [Value,Min,Day,Hour,Minute,Max,Day,Hour,Minute]
146,9,PERIM,Zone Infiltration Total Heat Loss Energy [J] !Monthly  [Value,Min,Day,Hour,Minute,Max,Day,Hour,Minute]
147,9,PERIM,Zone Infiltration Total Heat Gain Energy [J] !Monthly  [Value,Min,Day,Hour,Minute,Max,Day,Hour,Minute]
148,9,PERIM,Zone Infiltration Air Change Rate [ach] !Monthly [Value,Min,Day,Hour,Minute,Max,Day,Hour,Minute]
149,9,CORE,Zone Infiltration Total Heat Loss Energy [J] !Monthly  [Value,Min,Day,Hour,Minute,Max,Day,Hour,Minute]
150,9,CORE,Zone Infiltration Total Heat Gain Energy [J] !Monthly  [Value,Min,Day,Hour,Minute,Max,Day,Hour,Minute]
151,9,CORE,Zone Infiltration Air Change Rate [ach] !Monthly [Value,Min,Day,Hour,Minute,Max,Day,Hour,Minute]
224,9,PERIM,Zone Air Temperature [C] !Monthly [Value,Min,Day,Hour,Minute,Max,Day,Hour,Minute]
225,9,PERIM,Zone Air Relative Humidity [%] !Monthly [Value,Min,Day,Hour,Minute,Max,Day,Hour,Minute]
258,9,CORE,Zone Air Temperature [C] !Monthly [Value,Min,Day,Hour,Minute,Max,Day,Hour,Minute]
259,9,CORE,Zone Air Relative Humidity [%] !Monthly [Value,Min,Day,Hour,Minute,Max,Day,Hour,Minute]
260,9,PERIM IDEAL LOADS AIR,Zone Ideal Loads Supply Air Total Heating Energy [J] !Monthly  [Value,Min,Day,Hour,Minute,Max,Day,Hour,Minute]
291,9,PERIM IDEAL LOADS AIR,Zone Ideal Loads Supply Air Total Cooling Energy [J] !Monthly  [Value,Min,Day,Hour,Minute,Max,Day,Hour,Minute]
322,9,PERIM IDEAL LOADS AIR,Zone Ideal Loads Zone Total Heating Energy [J] !Monthly  [Value,Min,Day,Hour,Minute,Max,Day,Hour,Minute]
323,9,CORE IDEAL LOADS AIR,Zone Ideal Loads Supply Air Total Heating Energy [J] !Monthly  [Value,Min,Day,Hour,Minute,Max,Day,Hour,Minute]
324,9,CORE IDEAL LOADS AIR,Zone Ideal Loads Supply Air Total Cooling Energy [J] !Monthly  [Value,Min,Day,Hour,Minute,Max,Day,Hour,Minute]
325,9,CORE IDEAL LOADS AIR,Zone Ideal Loads Zone Total Heating Energy [J] !Monthly  [Value,Min,Day,Hour,Minute,Max,Day,Hour,Minute]
408,9,DHW PERIM,Water Use Equipment Heating Energy [J] !Monthly  [Value,Min,Day,Hour,Minute,Max,Day,Hour,Minute]
461,9,DHW CORE,Water Use Equipment Heating Energy [J] !Monthly  [Value,Min,Day,Hour,Minute,Max,Day,Hour,Minute]
End of Data Dictionary
1,ARCHSIM,  37.57, 126.97,   9.00,  87.10
4,31, 1
8,51566344.1275269,7056.14999008297, 1,16,15,23520.4999669432, 1, 1,15
9,30990891.4352408,4240.68027302149, 1,16,15,14135.6009100716, 1, 1,15
71,34526772.2375536,0.0, 1, 1,15,42054.5337850837, 1,20,15
93,20750267.7982585,0.0, 1, 1,15,25274.3822146875, 1,20,15
125,41814222.1634546,6007.79054072625, 1, 1,15,30038.9527036312, 1,20,15
137,25129957.1734604,3610.62603066964, 1, 1,15,18053.1301533482, 1,20,15
138,303050011.973583,0.0, 1, 1,15,1136920.7818598,30, 9,60
139,0.0,0.0, 1, 1,15,0.0, 1, 1,15
140,18.8925754715661,17.1483351842514,23, 7,60,22.3338307988896, 3,11,30
141,19.9130292527484,19.4443229170415,14, 8,60,20.4869763252575, 8,16,15
142,20.0736957964204,19.9999999999998,24, 4,30,22.0705344925298, 4,11,15
143,19.4831356339932,18.5741675921256,23, 7,60,22.1935173203478, 4,11,30
144,20.014526419398,19.9999999999999,15, 4,15,20.613996467993, 8,20,45
145,19.9637778360732,19.7221614585207,14, 8,60,20.507551610949, 8,21,60
146,213315672.001186,24787.4611236691, 8,10,37,109425.270390397,23, 6,60
147,0.0,0.0, 1, 1,15,0.0, 1, 1,15
148,0.37879932040344,0.361897370094744, 6,15,60,0.394108520670684,23, 6,60
149,128099248.998292,13956.6487503901, 8,10,37,65864.7524224359,23, 6,60
150,0.0,0.0, 1, 1,15,0.0, 1, 1,15
151,0.378722440062561,0.361564882068163, 6,15,60,0.394106426564882,23, 6,60
224,20.0736957964204,19.9999999999998,24, 4,30,22.0705344925298, 4,11,15
225,17.4465125787537,6.53004234271894,14,19,60,34.9915110632478, 2,22,45
258,20.014526419398,19.9999999999999,15, 4,15,20.613996467993, 8,20,45
259,17.6276763119024,6.17771387220323,14,19,60,35.203396581902, 2,22,45
260,483419339.922484,0.0, 1,10,15,384112.72709587,23, 6,60
291,0.0,0.0, 1, 1,15,0.0, 1, 1,15
322,483419339.922494,0.0, 1,10,15,384112.727095874,23, 6,60
323,86930524.5346288,0.0, 1,20,15,72453.735382188,23, 6,60
324,0.0,0.0, 1, 1,15,0.0, 1, 1,15
325,86930524.6852215,0.0, 1,20,15,72453.7353821914,23, 6,60
408,103312071.489497,0.0, 1, 1,15,166632.373370157, 1, 7,15
461,62089590.5197935,0.0, 1, 1,15,100144.500838377, 1, 7,15
4,59, 2
8,46551773.5345745,7056.14999008297, 1, 9,15,23520.4999669432, 1, 1,15
9,27977181.3212136,4240.68027302149, 1, 9,15,14135.6009100716, 1, 1,15
71,31204464.068532,0.0, 1, 1,15,42054.5337850837, 1,20,15
93,18753591.6032981,0.0, 1, 1,15,25274.3822146875, 1,20,15
125,37776986.9200866,6007.79054072625, 1, 1,15,30038.9527036312, 1,19,15
137,22703616.4808505,3610.62603066964, 1, 1,15,18053.1301533482, 1,19,15
138,327178702.594897,0.0, 1, 1,15,1292276.10018683,17,10,15
139,0.0,0.0, 1, 1,15,0.0, 1, 1,15
140,19.643505386947,17.4097217115219, 8, 6,60,24.3100020705703,28,11,60
141,20.2486374999696,19.5405107467482, 4, 8,60,22.0167424022428,28,22,45
142,20.4160138374156,19.9999999999998, 4, 6,60,24.2364058916872,28,11,45
143,20.0297596121813,18.7048608557609, 8, 6,60,24.2579446217459,28,11,60
144,20.2008765633734,19.9999999999999, 2, 2,45,22.0742474006645,28,20,60
145,20.2247570316715,19.7702553733741, 4, 8,60,22.0250764958794,28,20,60
146,171546793.89354,10908.3041359911,28,10,18,100464.63823092, 8, 6,60
147,0.0,0.0, 1, 1,15,0.0, 1, 1,15
148,0.375394799089587,0.360756503339048,23,15,60,0.390359267218532, 8, 6,60
149,102198253.131421,6178.60455122911,28,10,30,60400.4279836772, 8, 6,60
150,0.0,0.0, 1, 1,15,0.0, 1, 1,15
151,0.37512404955709,0.358932879099295,23,15,60,0.390358804034931, 8, 6,60
224,20.4160138374156,19.9999999999998, 4, 6,60,24.2364058916872,28,11,45
225,18.0810556669086,6.08518108991091, 9,17,60,37.9605111163723, 3,22,15
258,20.2008765633734,19.9999999999999, 2, 2,45,22.0742474006645,28,20,60
259,18.3297489222351,6.06404558941816, 9,17,60,38.3712186514184, 3,21,60
260,311642355.238376,0.0, 1,10,15,342736.901575069, 8, 6,60
291,0.0,0.0, 1, 1,15,0.0, 1, 1,15
322,311642355.238383,0.0, 1,10,15,342736.901575069, 8, 6,60
323,49598258.9891461,0.0, 1,20,15,60600.9106102871, 8, 6,60
324,0.0,0.0, 1, 1,15,0.0, 1, 1,15
325,49598259.1055982,0.0, 1,20,15,60600.9106102871, 8, 6,60
408,93314129.0872878,0.0, 1, 1,15,166632.373370157, 1, 7,15
461,56080920.4694909,0.0, 1, 1,15,100144.500838377, 1, 7,15
4,90, 3
8,51378180.1277913,7056.14999008297, 1, 9,15,23520.4999669432, 1, 1,15
9,30877806.6279602,4240.68027302149, 1, 9,15,14135.6009100716, 1, 1,15
71,34673963.1058014,0.0, 1, 1,15,42054.5337850837, 1,20,15
93,20838728.1360099,0.0, 1, 1,15,25274.3822146875, 1,20,15
125,41886315.6499433,6007.79054072625, 1, 1,15,30038.9527036312, 1,19,15
137,25173284.6858285,3610.62603066964, 1, 1,15,18053.1301533482, 1,19,15
138,465896071.248149,0.0, 1, 1,15,1601679.56833286,30, 9,30
139,0.0,0.0, 1, 1,15,0.0, 1, 1,15
140,21.6763873181086,17.780767133605, 8, 6,60,26.3666768908801,30,12,15
141,21.7442437342879,19.7478230549109, 8, 8,30,24.2105010647785,30,22,60
142,21.6708225739952,19.9999999999998, 6, 6,60,26.3646854022566,19,11,60
143,21.6736049460519,18.8903835668025, 8, 6,60,26.3108646105895,30,11,60
144,21.4867897343226,19.9999999999999, 8, 7,45,24.2693521210944,30,21,60
145,21.6155167343053,19.8739115274555, 8, 8,30,24.2154046606221,30,21,60
146,152532218.572989,6865.51724103929,30, 9,17,82321.2836885356, 8, 6,60
147,0.0,0.0, 1, 1,15,0.0, 1, 1,15
148,0.369717026036019,0.359077402110665,19,15,60,0.383368654550399, 8, 6,60
149,91078042.2595931,4055.3893365147,30, 9,29,49718.0833824381, 8, 6,60
150,0.0,0.0, 1, 1,15,0.0, 1, 1,15
151,0.369497137771024,0.355759178136618,19,15,60,0.383363583307671, 8, 6,60
224,21.6708225739952,19.9999999999998, 6, 6,60,26.3646854022566,19,11,60
225,22.1597181363723,8.52282873922005, 7,16,15,39.388783979697,13, 1,15
258,21.4867897343226,19.9999999999999, 8, 7,45,24.2693521210944,30,21,60
259,22.3151960606331,8.46158256198592, 7,17,60,35.3767601447139,31,19,15
260,110575544.724889,0.0, 1,10,30,276539.452726346, 8, 6,60
291,0.0,0.0, 1, 1,15,0.0, 1, 1,15
322,110575544.724892,0.0, 1,10,30,276539.452726349, 8, 6,60
323,6880743.4996547,0.0, 1, 1,15,43594.8724351981, 8, 6,60
324,0.0,0.0, 1, 1,15,0.0, 1, 1,15
325,6880743.57662833,0.0, 1, 1,15,43594.8724351997, 8, 6,60
408,103312071.489497,0.0, 1, 1,15,166632.373370157, 1, 7,15
461,62089590.5197935,0.0, 1, 1,15,100144.500838377, 1, 7,15
4,120, 4
8,50145705.9295234,7056.14999008297, 1,15,15,23520.4999669432, 1, 1,15
9,30137101.1402725,4240.68027302149, 1,15,15,14135.6009100716, 1, 1,15
71,33223081.690216,0.0, 1, 1,15,42054.5337850837, 1,19,15
93,19966761.9496031,0.0, 1, 1,15,25274.3822146875, 1,19,15
125,40372352.4336803,6007.79054072625, 1, 1,15,30038.9527036312, 1,19,15
137,24263406.9260997,3610.62603066964, 1, 1,15,18053.1301533482, 1,19,15
138,441841861.614703,0.0, 1, 1,15,1637696.39115387, 2, 9,30
139,0.0,0.0, 1, 1,15,0.0, 1, 1,15
140,24.9877397453943,18.5941153114318, 1, 7,30,33.7740578552466,12,11,60
141,24.9645011280263,20.8595257438253, 5, 9,15,31.1621419346463,12,22,15
142,24.7307598850969,19.9999999999999,26, 3,45,33.6091825425535,12,11,45
143,24.8592498152456,19.2970576557159, 1, 7,30,33.663607690435,12,11,45
144,24.7776305142286,20.5162417362317, 5, 9,30,31.2038432781562,12,19,60
145,24.8710658211274,20.6911514132404, 5, 9,30,31.1383444888475,12,21,15
146,123592704.365639,1062.5021474331,19,19,60,74517.926260196,11,22,60
147,0.0,0.0, 1, 1,15,0.0, 1, 1,15
148,0.365169132120971,0.356441435075837,19,12,60,0.375501864313591, 1, 9,45
149,75095747.931155,0.0,19,19,45,45056.8942570111,13, 2,60
150,3570.92889821201,0.0, 1, 1,15,3337.22966804014,19,19,60
151,0.365248322598825,0.35202636988987,19,12,60,0.374583550303749, 1, 2,60
224,24.7307598850969,19.9999999999999,26, 3,45,33.6091825425535,12,11,45
225,31.4654401396772,13.4623364419849,11,16,60,59.9668618763787,20,23,45
258,24.7776305142286,20.4961817561343, 5, 9,15,31.2038432781562,12,19,60
259,30.9258674550531,15.363593875522,11,17,15,51.8351133606876,20,24,30
260,20391581.4219398,0.0, 1, 9, 3,171746.630550189, 1, 7,30
291,0.0,0.0, 1, 1,15,0.0, 1, 1,15
322,20391581.4219404,0.0, 1, 9, 3,171746.630550189, 1, 7,30
323,0.0,0.0, 1, 1,15,0.0, 1, 1,15
324,0.0,0.0, 1, 1,15,0.0, 1, 1,15
325,0.0,0.0, 1, 1,15,0.0, 1, 1,15
408,99979424.022094,0.0, 1, 1,15,166632.373370157, 1, 6,15
461,60086700.503026,0.0, 1, 1,15,100144.500838377, 1, 6,15
4,151, 5
8,51378180.1277913,7056.14999008297, 1, 8,15,23520.4999669432, 1, 1,15
9,30877806.6279602,4240.68027302149, 1, 8,15,14135.6009100716, 1, 1,15
71,34673963.1058014,0.0, 1, 1,15,42054.5337850837, 1,19,15
93,20838728.1360099,0.0, 1, 1,15,25274.3822146875, 1,19,15
125,41886315.6499433,6007.79054072625, 1, 1,15,30038.9527036312, 1,18,15
137,25173284.6858285,3610.62603066964, 1, 1,15,18053.1301533482, 1,18,15
138,428948175.255736,0.0, 1, 1,15,1458725.27494681, 5, 9,60
139,0.0,0.0, 1, 1,15,0.0, 1, 1,15
140,28.7970234900652,22.0411480960583,11, 7,15,37.3264098838861,26,12,15
141,28.8333476044604,24.7300973902109,30, 9,60,34.9303131125851,26,22,60
142,28.4961642085762,21.7412586791597,11, 6,60,37.1913550764088,26,11,60
143,28.6465938493207,21.8936123120504,11, 6,60,37.2364031956309,26,11,60
144,28.6896378749335,24.569893360341, 4,10,15,34.9644125334187,26,21,60
145,28.761492739697,24.6899813657271,30, 9,45,34.9283384580846,26,21,60
146,119038958.770374,33.3611800513827,21,19,60,71926.1798328959,17, 5,60
147,0.0,0.0, 1, 1,15,0.0, 1, 1,15
148,0.362756232757262,0.354748079123341,23,15,60,0.369154853667049, 1, 3,60
149,73426459.5793847,0.0,11,18,45,47871.8907721483,17, 5,60
150,20678.4009326703,0.0, 1, 1,15,3690.65639175752,11,18,60
151,0.363010911585356,0.350849767394456,23,15,60,0.372402767553039, 6, 6,60
224,28.4961642085762,21.7412586791597,11, 6,60,37.1913550764088,26,11,60
225,37.6748460600377,16.2613702181169, 8,16,15,65.0456503312717,29, 4,30
258,28.6896378749335,24.5659284879448, 4, 9,60,34.9644125334187,26,21,60
259,36.7063690152396,18.652010806176, 8,16,60,59.3121055872422,28,15,30
260,0.0,0.0, 1, 1,15,0.0, 1, 1,15
291,0.0,0.0, 1, 1,15,0.0, 1, 1,15
322,0.0,0.0, 1, 1,15,0.0, 1, 1,15
323,0.0,0.0, 1, 1,15,0.0, 1, 1,15
324,0.0,0.0, 1, 1,15,0.0, 1, 1,15
325,0.0,0.0, 1, 1,15,0.0, 1, 1,15
408,103312071.489497,0.0, 1, 1,15,166632.373370157, 1, 6,15
461,62089590.5197935,0.0, 1, 1,15,100144.500838377, 1, 6,15
4,181, 6
8,49769377.9300524,7056.14999008297, 1, 8,15,23520.4999669432, 1, 1,15
9,29910931.5257114,4240.68027302149, 1, 8,15,14135.6009100716, 1, 1,15
71,33517463.4267116,0.0, 1, 1,15,42054.5337850837, 1,19,15
93,20143682.625106,0.0, 1, 1,15,25274.3822146875, 1,19,15
125,40516539.4066577,6007.79054072625, 1, 1,15,30038.9527036312, 1,18,15
137,24350061.9508358,3610.62603066964, 1, 1,15,18053.1301533482, 1,18,15
138,425373722.980175,0.0, 1, 1,15,1544249.60831128, 1, 9,60
139,0.0,0.0, 1, 1,15,0.0, 1, 1,15
140,33.6332548913852,26.9516858763154, 1, 7,15,40.868726861645,10,15,60
141,33.4798657835647,28.6481071818126, 1, 9,60,38.4964375132128,11,22,60
142,33.331959560358,26.5136741298969, 1, 5,60,40.6095927364646,10,11,60
143,33.4826072258716,26.7751673471915, 1, 6,60,40.6980533272732,10,15,60
144,33.3291520144283,28.3971000712693, 1, 9,45,38.5554477772508,11,20,60
145,33.4045088989964,28.5254159124978, 1, 9,60,38.484450537492,11,20,60
146,121271113.792391,4867.56557926086, 2,10, 2,64266.5017749142,11,11,30
147,0.0,0.0, 1, 1,15,0.0, 1, 1,15
148,0.362042624366641,0.355318218523847,15,15,60,0.369639160573782,12, 3,22
149,73839449.2905413,600.918559488567, 1,15,60,44128.1991608925,12, 7,15
150,0.0,0.0, 1, 1,15,0.0, 1, 1,15
151,0.36205498734037,0.352712514466257,15,15,60,0.372606676038425,12, 6,45
224,33.331959560358,26.5136741298969, 1, 5,60,40.6095927364646,10,11,60
225,41.1540226314351,15.7075682216158, 1,15,15,69.9955356170395,14, 5,60
258,33.3291520144283,28.3971000712693, 1, 9,45,38.5554477772508,11,20,60
259,40.6721715327854,18.5218241742363, 1,15,15,63.778581681171,14, 5,60
260,0.0,0.0, 1, 1,15,0.0, 1, 1,15
291,0.0,0.0, 1, 1,15,0.0, 1, 1,15
322,0.0,0.0, 1, 1,15,0.0, 1, 1,15
323,0.0,0.0, 1, 1,15,0.0, 1, 1,15
324,0.0,0.0, 1, 1,15,0.0, 1, 1,15
325,0.0,0.0, 1, 1,15,0.0, 1, 1,15
408,99979424.022094,0.0, 1, 1,15,166632.373370157, 1, 6,15
461,60086700.503026,0.0, 1, 1,15,100144.500838377, 1, 6,15
4,212, 7
8,51754508.1272624,7056.14999008297, 1,15,15,23520.4999669432, 1, 1,15
9,31103976.2425214,4240.68027302149, 1,15,15,14135.6009100716, 1, 1,15
71,34379581.3693058,0.0, 1, 1,15,42054.5337850837, 1,19,15
93,20661807.4605071,0.0, 1, 1,15,25274.3822146875, 1,19,15
125,41742128.6769659,6007.79054072625, 1, 1,15,30038.9527036312, 1,19,15
137,25086629.6610924,3610.62603066964, 1, 1,15,18053.1301533482, 1,19,15
138,344705529.399002,0.0, 1, 1,15,1325300.69023145,12,10,15
139,0.0,0.0, 1, 1,15,0.0, 1, 1,15
140,26.7510426180008,23.9705716705389,12, 6,30,35.3195579371755, 1,14,15
141,25.7219133353745,24.5171346852845,17,22,15,32.8075792889728, 1, 1,15
142,25.8605874768381,23.9068692843615, 3,14,15,35.1479991728222, 1,13,60
143,26.3058150474194,24.0143173351068,12, 4,30,35.2061435859919, 1,13,60
144,25.3278337766547,23.9548780062388, 3,14,15,32.5143370286131, 1,13,60
145,25.5248735560146,24.2614599495982,17,21,60,32.6526754942775, 1, 1,15
146,26390403.5686382,0.0, 1,14, 2,39348.6542673256, 1, 1,15
147,22957889.8709877,0.0, 1, 1,15,51992.5751842316,30,14,30
148,0.350591550364543,0.341421488530666,20,15,60,0.360170258544446, 1,10,35
149,13332304.1242976,0.0, 1,14, 2,27877.1935210003, 1, 3,60
150,13647869.4815737,0.0, 1, 1,15,29863.6298669812,30,14,45
151,0.349969886583728,0.341411097810084,20,15,60,0.361900584833799, 1, 3,60
224,25.8605874768381,23.5377144194492, 3,14, 7,35.1479991728222, 1,13,60
225,72.155830902253,41.9828909500129,12,12,15,91.1477671123092, 3, 5,60
258,25.3278337766547,23.5796127356512,10,14, 3,32.5143370286131, 1,13,60
259,74.2573179948372,53.5447607988414, 1,13,60,90.8745337314236, 2,14, 1
260,0.0,0.0, 1, 1,15,0.0, 1, 1,15
291,368277141.135088,0.0, 1, 1,15,1404347.18617998, 1,14,45
322,4.342338968399417E-006,0.0, 1, 1,15,1.049784259521402E-007,10,15,15
323,0.0,0.0, 1, 1,15,0.0, 1, 1,15
324,137737927.21251,0.0, 1, 1,15,731107.590898457, 1,14,45
325,1.104518290162559E-006,0.0, 1, 1,15,3.176978680130560E-008,13,14,45
408,103312071.489497,0.0, 1, 1,15,166632.373370157, 1, 6,15
461,62089590.5197935,0.0, 1, 1,15,100144.500838377, 1, 6,15
4,243, 8
8,51378180.1277913,7056.14999008297, 1, 8,15,23520.4999669432, 1, 1,15
9,30877806.6279602,4240.68027302149, 1, 8,15,14135.6009100716, 1, 1,15
71,34673963.1058014,0.0, 1, 1,15,42054.5337850837, 1,19,15
93,20838728.1360099,0.0, 1, 1,15,25274.3822146875, 1,19,15
125,41886315.6499434,6007.79054072625, 1, 1,15,30038.9527036312, 1,18,15
137,25173284.6858285,3610.62603066964, 1, 1,15,18053.1301533482, 1,18,15
138,414850517.012872,0.0, 1, 1,15,1392140.56310305,17, 9,60
139,0.0,0.0, 1, 1,15,0.0, 1, 1,15
140,27.1188441205436,23.1989994748052,26, 7,15,33.8615949930133, 7,14,15
141,25.7362705413703,24.4124628477949,26, 8,15,28.1562507406643, 7,14,15
142,26.0769434349271,23.0081217588257,26, 6,60,33.8870990303303, 7,12,30
143,26.5978937777353,23.1037486575959,26, 7,15,33.8294814196891, 7,13,60
144,25.2964616295452,23.9398062845376,25,14,15,28.382511568523, 7,13,60
145,25.5163660854578,24.3657964190868,26,21,60,28.2194840715856, 7,13,60
146,28554390.3438528,0.0, 1,14, 1,44280.7078142423,27,11,60
147,24707698.6593382,0.0, 1, 1,15,52669.9646740788, 7,15,60
148,0.350281477157465,0.339003883745433, 7,15,60,0.35861531382163,28,11,22
149,13412438.0405626,0.0, 1,13,15,19906.9854434733,26, 6,60
150,14811221.3843495,0.0, 1, 1,15,31048.1837786839, 7,15,60
151,0.349374192949939,0.338991603928424, 7,15,60,0.357880387536045,28, 6,60
224,26.0769434349271,23.0081217588257,26, 6,60,33.8870990303303, 7,12,30
225,70.1812901616237,40.2228846050051,30,13,60,93.0327504006814, 2, 5,60
258,25.2964616295452,23.5705956543716, 2,14, 3,28.382511568523, 7,13,60
259,73.1029247983708,53.0747205783584,30,13,60,93.8146194074334, 2, 5,60
260,0.0,0.0, 1, 1,15,0.0, 1, 1,15
291,424054475.068775,0.0, 1, 1,15,1195546.92606151, 7,14,45
322,5.184155999028338E-006,0.0, 1, 1,15,1.346506905974820E-007,13,14,45
323,0.0,0.0, 1, 1,15,0.0, 1, 1,15
324,147965300.030694,0.0, 1, 1,15,332843.983773145, 7,14, 1
325,1.359836403480585E-006,0.0, 1, 1,15,4.215507942717522E-008,12,14,60
408,103312071.489497,0.0, 1, 1,15,166632.373370157, 1, 6,15
461,62089590.5197935,0.0, 1, 1,15,100144.500838377, 1, 6,15
4,273, 9
8,49957541.9297879,7056.14999008297, 1, 8,15,23520.4999669432, 1, 1,15
9,30024016.3329919,4240.68027302149, 1, 8,15,14135.6009100716, 1, 1,15
71,33370272.5584638,0.0, 1, 1,15,42054.5337850837, 1,19,15
93,20055222.2873546,0.0, 1, 1,15,25274.3822146875, 1,19,15
125,40444445.920169,6007.79054072625, 1, 1,15,30038.9527036312, 1,18,15
137,24306734.4384678,3610.62603066964, 1, 1,15,18053.1301533482, 1,18,15
138,370272217.086149,0.0, 1, 1,15,1568385.73546541,16, 9,30
139,0.0,0.0, 1, 1,15,0.0, 1, 1,15
140,25.903093665733,22.3992688325131,30, 7,30,32.496198720141, 7,14,15
141,25.1246128470884,23.8610401797624,30, 8,30,27.1891387424644, 7,14,15
142,25.0734187642177,22.1620732450325,30, 7,30,32.4196038008092, 7,11,60
143,25.4882562149754,22.2806710387728,30, 7,30,32.421917565987, 7,13,60
144,24.7629802060125,23.7503048709901,30, 7,60,27.3566292376311, 7,13,60
145,24.9437965265504,23.8134052768388,30, 7,60,27.2273502177313, 7,13,60
146,49830243.6149855,0.0, 1,14, 2,48484.6692273971,15,24,60
147,2730570.15928142,0.0, 1, 1,15,25722.8284045353,20,18,60
148,0.353997808982213,0.342451338952076, 6,15,60,0.362188276571624,16, 9,42
149,28192510.3221159,0.0, 1,14, 1,29520.6813852276,15,24,60
150,1622672.24251317,0.0, 1, 1,15,16532.5824349233,20,18,60
151,0.353639936882042,0.342454984008592, 6,15,60,0.362639795143684,30,24,60
224,25.0734187642177,22.1620732450325,30, 7,30,32.4196038008092, 7,11,60
225,61.512159410916,28.7961572658254,16,11,60,87.5226576107662, 9, 6,60
258,24.7629802060125,23.5537444519163,15,14, 3,27.3566292376311, 7,13,60
259,62.0736003698005,35.9892722457811,16,13,60,85.1656636931652, 9, 6,60
260,0.0,0.0, 1, 1,15,0.0, 1, 1,15
291,263192379.198166,0.0, 1, 1,15,999441.890604772, 7,14,45
322,5.926854515838851E-006,0.0, 1, 1,15,8.308234100695700E-008, 7,14,60
323,0.0,0.0, 1, 1,15,0.0, 1, 1,15
324,87649634.3061264,0.0, 1, 1,15,241561.77569198, 7,14,45
325,1.852724718453736E-006,0.0, 1, 1,15,2.511910679459106E-008, 6,14,45
408,99979424.022094,0.0, 1, 1,15,166632.373370157, 1, 6,15
461,60086700.503026,0.0, 1, 1,15,100144.500838377, 1, 6,15
4,304,10
8,51566344.1275269,7056.14999008297, 1,15,15,23520.4999669432, 1, 1,15
9,30990891.4352408,4240.68027302149, 1,15,15,14135.6009100716, 1, 1,15
71,34526772.2375536,0.0, 1, 1,15,42054.5337850837, 1,19,15
93,20750267.7982585,0.0, 1, 1,15,25274.3822146875, 1,19,15
125,41814222.1634546,6007.79054072625, 1, 1,15,30038.9527036312, 1,19,15
137,25129957.1734604,3610.62603066964, 1, 1,15,18053.1301533482, 1,19,15
138,345893651.454985,0.0, 1, 1,15,1319937.99759752, 1, 8,60
139,0.0,0.0, 1, 1,15,0.0, 1, 1,15
140,25.5446465788236,18.9758605734274,24, 7,30,32.4579138149291, 5,11,45
141,25.8019080780006,21.568174262722,29, 9,15,30.3904881478122, 5,22,60
142,25.3167958952675,19.9999999999999,24, 3,30,32.4942388890103, 5,11,45
143,25.4307212370455,19.4879302867137,24, 7,30,32.4760763519697, 5,11,45
144,25.6929825988948,21.3401933233263,31,10,30,30.5196397129848, 5,19,60
145,25.7474453384477,21.5379415377892,31,10,15,30.4449795317014, 5,21,60
146,108728488.162599,0.0,14,18,60,65892.2949030721,15,24,60
147,836.218897903113,0.0, 1, 1,15,836.218897903113,14,18,60
148,0.362084139217894,0.354523748955434,22,15,60,0.370593337130787,31,10,37
149,68197812.9973894,0.0,14,18,60,42970.1555492108,15,24,60
150,1582.01710293191,0.0, 1, 1,15,1582.01710293191,14,18,60
151,0.36255215255952,0.352747602320392,27,15,60,0.371776945407554,24, 6,60
224,25.3167958952675,19.9999999999999,24, 3,30,32.4942388890103, 5,11,45
225,38.7719696767517,16.1311548952963,19,15,15,68.4297028421929,28,24,30
258,25.6929825988948,21.3283442534233,31,10,15,30.5196397129848, 5,19,60
259,37.8857662862049,17.440457627334,19,15,45,62.4025617092304,28,24,30
260,4573341.86867356,0.0, 1, 1,15,112929.621384394,24, 7,30
291,0.0,0.0, 1, 1,15,0.0, 1, 1,15
322,4573341.86867369,0.0, 1, 1,15,112929.621384399,24, 7,30
323,0.0,0.0, 1, 1,15,0.0, 1, 1,15
324,0.0,0.0, 1, 1,15,0.0, 1, 1,15
325,0.0,0.0, 1, 1,15,0.0, 1, 1,15
408,103312071.489497,0.0, 1, 1,15,166632.373370157, 1, 6,15
461,62089590.5197935,0.0, 1, 1,15,100144.500838377, 1, 6,15
4,334,11
8,49769377.9300524,7056.14999008297, 1, 9,15,23520.4999669432, 1, 1,15
9,29910931.5257114,4240.68027302149, 1, 9,15,14135.6009100716, 1, 1,15
71,33517463.4267116,0.0, 1, 1,15,42054.5337850837, 1,20,15
93,20143682.625106,0.0, 1, 1,15,25274.3822146875, 1,20,15
125,40516539.4066577,6007.79054072625, 1, 1,15,30038.9527036312, 1,19,15
137,24350061.9508358,3610.62603066964, 1, 1,15,18053.1301533482, 1,19,15
138,259180080.04012,0.0, 1, 1,15,1024692.38926158,12, 9,30
139,0.0,0.0, 1, 1,15,0.0, 1, 1,15
140,20.1993579123084,17.5274896925835,27, 7,60,24.8053719461688, 7,15,30
141,20.819459556673,19.5840814141465,11, 8,60,23.8805873695668, 7,23,60
142,20.687312082462,19.9999999999998,23, 1,15,24.7317061867587, 7,15,15
143,20.4433349973852,18.7637448462917,27, 7,60,24.7676080055043, 7,15,30
144,20.7708240932982,19.9999999999999,24, 2,30,24.1830955089096, 7,22,60
145,20.7951418249856,19.7920407070732,11, 8,60,24.0241497352948, 7,23,60
146,122734640.593124,8247.95325856743, 7, 9,33,81906.7412842646,30,24,60
147,0.0,0.0, 1, 1,15,0.0, 1, 1,15
148,0.366078935652111,0.353819055859402, 5,15,60,0.380917480586635,23, 8,60
149,74338030.2587364,5137.00687970129, 7,13,60,48108.4804452341,23, 7,60
150,0.0,0.0, 1, 1,15,0.0, 1, 1,15
151,0.366183942079032,0.352112017690126, 6,15,60,0.380926647190818,23, 8,60
224,20.687312082462,19.9999999999998,23, 1,15,24.7317061867587, 7,15,15
225,35.9691097091886,15.1013484744492,23,11,30,60.0242886079206,19, 9,15
258,20.7708240932982,19.9999999999999,24, 2,30,24.1830955089096, 7,22,60
259,35.6556480656124,15.3938145301814,23,13,15,60.2856490643952,19,11,30
260,188122694.088106,0.0, 1, 1,15,292914.452303521,27, 6,60
291,0.0,0.0, 1, 1,15,0.0, 1, 1,15
322,188122694.088112,0.0, 1, 1,15,292914.452303536,27, 6,60
323,17619150.3724518,0.0, 1, 1,15,42441.8985669082,23, 6,60
324,0.0,0.0, 1, 1,15,0.0, 1, 1,15
325,17619150.884256,0.0, 1, 1,15,42441.8985669097,23, 6,60
408,99979424.022094,0.0, 1, 1,15,166632.373370157, 1, 7,15
461,60086700.503026,0.0, 1, 1,15,100144.500838377, 1, 7,15
4,365,12
8,51754508.1272624,7056.14999008297, 1, 9,15,23520.4999669432, 1, 1,15
9,31103976.2425214,4240.68027302149, 1, 9,15,14135.6009100716, 1, 1,15
71,34379581.3693058,0.0, 1, 1,15,42054.5337850837, 1,20,15
93,20661807.4605071,0.0, 1, 1,15,25274.3822146875, 1,20,15
125,41742128.6769659,6007.79054072625, 1, 1,15,30038.9527036312, 1,19,15
137,25086629.6610924,3610.62603066964, 1, 1,15,18053.1301533482, 1,19,15
138,285924298.475803,0.0, 1, 1,15,934611.675967738,31, 9,45
139,0.0,0.0, 1, 1,15,0.0, 1, 1,15
140,18.9673089581639,17.159052503808,18, 6,60,22.1351670211342,13,11,15
141,19.9225601566229,19.4526560623706,17, 8,60,20.3550890512795,28,23,45
142,20.0633216260665,19.9999999999998,15, 5,15,21.7603005780523,13,10,60
143,19.5153152921152,18.5795262519039,18, 6,60,21.9435596983985,13,11,15
144,20.0131027395668,19.9999999999999,17,17,30,20.5484459674323,28,20,60
145,19.9678314480948,19.7263280311853,17, 8,60,20.4231705021027,28,20,60
146,196769604.110977,29091.6296303351, 7,10,22,111259.988850894,31, 9,60
147,0.0,0.0, 1, 1,15,0.0, 1, 1,15
148,0.376343989913559,0.361489060394032,29,15,60,0.394426922247188,31,24,60
149,118181790.446385,16611.3765652821, 7,10,30,66684.0153504557,31, 9,60
150,0.0,0.0, 1, 1,15,0.0, 1, 1,15
151,0.376278610800512,0.361489945984235,29,15,60,0.394422970063029,31,24,60
224,20.0633216260665,19.9999999999998,15, 5,15,21.7603005780523,13,10,60
225,20.1076586416039,7.60740435402763,15,17,60,40.268954584227,25, 4,30
258,20.0131027395668,19.9999999999999,17,17,30,20.5484459674323,28,20,60
259,20.2641328594412,7.37604009447609,16,19,60,40.8618846590162,25, 4,15
260,434855594.912665,0.0, 1, 9,45,378729.381254098,18, 6,60
291,0.0,0.0, 1, 1,15,0.0, 1, 1,15
322,434855594.912674,0.0, 1, 9,45,378729.381254116,18, 6,60
323,75460304.3408917,0.0, 2,20,15,70374.5001735721,17, 8,60
324,0.0,0.0, 1, 1,15,0.0, 1, 1,15
325,75460304.6044471,0.0, 2,20,15,70374.5001735734,17, 8,60
408,103312071.489497,0.0, 1, 1,15,166632.373370157, 1, 7,15
461,62089590.5197935,0.0, 1, 1,15,100144.500838377, 1, 7,15
End of Data
 Number of Records Written=         384
