Program Version,EnergyPlus, Version 8.4.0-09f5359d8a, YMD=2023.08.02 14:39
1,5,Environment Title[],Latitude[deg],Longitude[deg],Time Zone[],Elevation[m]
2,6,Day of Simulation[],Month[],Day of Month[],DST Indicator[1=yes 0=no],Hour[],StartMinute[],EndMinute[],DayType
3,3,Cumulative Day of Simulation[],Month[],Day of Month[],DST Indicator[1=yes 0=no],DayType  ! When Daily Report Variables Requested
4,2,Cumulative Days of Simulation[],Month[]  ! When Monthly Report Variables Requested
5,1,Cumulative Days of Simulation[] ! When Run Period Report Variables Requested
8,9,PERIM,Zone People Total Heating Energy [J] !Monthly  [Value,Min,Day,Hour,Minute,Max,Day,Hour,Minute]
9,9,CORE,Zone People Total Heating Energy [J] !Monthly  [Value,Min,Day,Hour,Minute,Max,Day,Hour,Minute]
71,9,PERIM,Zone Lights Electric Energy [J] !Monthly  [Value,Min,Day,Hour,Minute,Max,Day,Hour,Minute]
93,9,CORE,Zone Lights Electric Energy [J] !Monthly  [Value,Min,Day,Hour,Minute,Max,Day,Hour,Minute]
125,9,PERIM,Zone Electric Equipment Electric Energy [J] !Monthly  [Value,Min,Day,Hour,Minute,Max,Day,Hour,Minute]
137,9,CORE,Zone Electric Equipment Electric Energy [J] !Monthly  [Value,Min,Day,Hour,Minute,Max,Day,Hour,Minute]
138,9,PERIM,Zone Windows Total Transmitted Solar Radiation Energy [J] !Monthly  [Value,Min,Day,Hour,Minute,Max,Day,Hour,Minute]
139,9,CORE,Zone Windows Total Transmitted Solar Radiation Energy [J] !Monthly  [Value,Min,Day,Hour,Minute,Max,Day,Hour,Minute]
140,9,PERIM,Zone Mean Radiant Temperature [C] !Monthly [Value,Min,Day,Hour,Minute,Max,Day,Hour,Minute]
141,9,CORE,Zone Mean Radiant Temperature [C] !Monthly [Value,Min,Day,Hour,Minute,Max,Day,Hour,Minute]
142,9,PERIM,Zone Mean Air Temperature [C] !Monthly [Value,Min,Day,Hour,Minute,Max,Day,Hour,Minute]
143,9,PERIM,Zone Operative Temperature [C] !Monthly [Value,Min,Day,Hour,Minute,Max,Day,Hour,Minute]
144,9,CORE,Zone Mean Air Temperature [C] !Monthly [Value,Min,Day,Hour,Minute,Max,Day,Hour,Minute]
145,9,CORE,Zone Operative Temperature [C] !Monthly [Value,Min,Day,Hour,Minute,Max,Day,Hour,Minute]
146,9,PERIM,Zone Infiltration Total Heat Loss Energy [J] !Monthly  [Value,Min,Day,Hour,Minute,Max,Day,Hour,Minute]
147,9,PERIM,Zone Infiltration Total Heat Gain Energy [J] !Monthly  [Value,Min,Day,Hour,Minute,Max,Day,Hour,Minute]
148,9,PERIM,Zone Infiltration Air Change Rate [ach] !Monthly [Value,Min,Day,Hour,Minute,Max,Day,Hour,Minute]
149,9,CORE,Zone Infiltration Total Heat Loss Energy [J] !Monthly  [Value,Min,Day,Hour,Minute,Max,Day,Hour,Minute]
150,9,CORE,Zone Infiltration Total Heat Gain Energy [J] !Monthly  [Value,Min,Day,Hour,Minute,Max,Day,Hour,Minute]
151,9,CORE,Zone Infiltration Air Change Rate [ach] !Monthly [Value,Min,Day,Hour,Minute,Max,Day,Hour,Minute]
224,9,PERIM,Zone Air Temperature [C] !Monthly [Value,Min,Day,Hour,Minute,Max,Day,Hour,Minute]
225,9,PERIM,Zone Air Relative Humidity [%] !Monthly [Value,Min,Day,Hour,Minute,Max,Day,Hour,Minute]
258,9,CORE,Zone Air Temperature [C] !Monthly [Value,Min,Day,Hour,Minute,Max,Day,Hour,Minute]
259,9,CORE,Zone Air Relative Humidity [%] !Monthly [Value,Min,Day,Hour,Minute,Max,Day,Hour,Minute]
260,9,PERIM IDEAL LOADS AIR,Zone Ideal Loads Supply Air Total Heating Energy [J] !Monthly  [Value,Min,Day,Hour,Minute,Max,Day,Hour,Minute]
291,9,PERIM IDEAL LOADS AIR,Zone Ideal Loads Supply Air Total Cooling Energy [J] !Monthly  [Value,Min,Day,Hour,Minute,Max,Day,Hour,Minute]
322,9,PERIM IDEAL LOADS AIR,Zone Ideal Loads Zone Total Heating Energy [J] !Monthly  [Value,Min,Day,Hour,Minute,Max,Day,Hour,Minute]
323,9,CORE IDEAL LOADS AIR,Zone Ideal Loads Supply Air Total Heating Energy [J] !Monthly  [Value,Min,Day,Hour,Minute,Max,Day,Hour,Minute]
324,9,CORE IDEAL LOADS AIR,Zone Ideal Loads Supply Air Total Cooling Energy [J] !Monthly  [Value,Min,Day,Hour,Minute,Max,Day,Hour,Minute]
325,9,CORE IDEAL LOADS AIR,Zone Ideal Loads Zone Total Heating Energy [J] !Monthly  [Value,Min,Day,Hour,Minute,Max,Day,Hour,Minute]
408,9,DHW PERIM,Water Use Equipment Heating Energy [J] !Monthly  [Value,Min,Day,Hour,Minute,Max,Day,Hour,Minute]
461,9,DHW CORE,Water Use Equipment Heating Energy [J] !Monthly  [Value,Min,Day,Hour,Minute,Max,Day,Hour,Minute]
End of Data Dictionary
1,ARCHSIM,  37.57, 126.97,   9.00,  87.10
4,31, 1
8,51566344.1261512,7056.14998989483, 1,16,15,23520.4999663161, 1, 1,15
9,30990891.4473275,4240.68027467533, 1,16,15,14135.6009155844, 1, 1,15
71,34526772.2366329,0.0, 1, 1,15,42054.5337839624, 1,20,15
93,20750267.8063509,0.0, 1, 1,15,25274.3822245443, 1,20,15
125,41814222.1623397,6007.79054056605, 1, 1,15,30038.9527028303, 1,20,15
137,25129957.183261,3610.62603207776, 1, 1,15,18053.1301603888, 1,20,15
138,1001215144.41481,0.0, 1, 1,15,2107791.69140229,30,11,45
139,0.0,0.0, 1, 1,15,0.0, 1, 1,15
140,25.4773453218876,17.3660075898508,22, 8,45,38.4648615870496, 4,13,45
141,24.4470631081465,19.637350478473,22, 8,60,29.0272059036321, 4,22,30
142,25.016995665958,19.9999999999998,22, 4,30,38.3995352660752, 4,13,45
143,25.2471704939228,18.6830037949255,22, 8,45,38.4321984265624, 4,13,45
144,23.8160094752586,19.9999999999999,22, 7,30,28.6025087891885, 4,20,60
145,24.1315362917026,19.8186752392365,22, 8,60,28.7879853553818, 4,22,15
146,262588367.306651,14083.1699265064, 4, 9,33,133312.203179259,22,13,60
147,0.0,0.0, 1, 1,15,0.0, 1, 1,15
148,0.384788342792344,0.370702033999478, 8, 8,45,0.404663905240864,14,13,45
149,151272202.152735,7845.28948549179, 3,11,45,68077.7133243993,10,24,60
150,0.0,0.0, 1, 1,15,0.0, 1, 1,15
151,0.383261607751182,0.367055562861828, 6,15,60,0.394827568088729,22,24,60
224,25.016995665958,19.9999999999998,22, 4,30,38.5733864928439, 4,13,45
225,15.477629614265,4.01740429284779,16,13,45,34.7062645394262, 2, 7,60
258,23.8160094752586,19.9999999999999,22, 7,30,28.6025087891885, 4,20,60
259,15.6904497273342,5.54642569833318,14,19,60,30.1161240968908, 2, 7,60
260,86763410.0781221,0.0, 1, 1,15,345888.026713501,22, 8,45
291,0.0,0.0, 1, 1,15,0.0, 1, 1,15
322,86763410.0781239,0.0, 1, 1,15,345888.026713501,22, 8,45
323,3259280.60415659,0.0, 1, 1,15,58033.6919453525,22, 8,60
324,0.0,0.0, 1, 1,15,0.0, 1, 1,15
325,3259280.60415668,0.0, 1, 1,15,58033.6919453525,22, 8,60
408,103312071.486743,0.0, 1, 1,15,166632.373365714, 1, 7,15
461,62089590.5440082,0.0, 1, 1,15,100144.500877432, 1, 7,15
4,59, 2
8,46551773.5333327,7056.14998989483, 1, 9,15,23520.4999663161, 1, 1,15
9,27977181.3321248,4240.68027467533, 1, 9,15,14135.6009155844, 1, 1,15
71,31204464.0676999,0.0, 1, 1,15,42054.5337839624, 1,20,15
93,18753591.6106119,0.0, 1, 1,15,25274.3822245443, 1,20,15
125,37776986.9190793,6007.79054056605, 1, 1,15,30038.9527028303, 1,19,15
137,22703616.4897048,3610.62603207776, 1, 1,15,18053.1301603888, 1,19,15
138,996823537.742105,0.0, 1, 1,15,2095923.04745606, 9,12,15
139,0.0,0.0, 1, 1,15,0.0, 1, 1,15
140,28.5142196633218,17.5986644740605, 4, 7,30,45.0967123764293,28,15,15
141,27.0406268383987,19.7623928690435, 4, 8,60,35.6992289450909,28,21,45
142,27.9084462477376,19.9999999999999,20, 5,60,44.5382458562874,28,14,60
143,28.2113329555297,18.7993322370303, 4, 7,30,44.8151218673182,28,15,15
144,26.4154824325119,19.9999999999999, 4, 7,15,35.1212468450227,28,20,60
145,26.7280546354553,19.8811964345217, 4, 8,60,35.3971399780487,28,20,60
146,240052328.305256,13584.5292092205,26, 9,47,138036.892151478, 7,13,60
147,0.0,0.0, 1, 1,15,0.0, 1, 1,15
148,0.384528305052866,0.369048491687482, 3,15,60,0.404688242420631, 9,13,45
149,137199101.316532,7962.5644456551, 6,11,48,78996.4363328321, 7,24,60
150,0.0,0.0, 1, 1,15,0.0, 1, 1,15
151,0.382675755167848,0.369287658704742,23,15,60,0.400171580970878, 8, 1, 7
224,27.9084462477376,19.9999999999999,20, 5,60,44.5382458562874,28,14,60
225,15.0963496221865,3.37594229685618, 8,13,45,38.1626418552646, 3,22,15
258,26.4154824325119,19.9999999999999, 4, 7,15,35.1221160222348,28,20,60
259,15.3644744523636,5.01642027573214, 9,17,60,37.4240026081472, 3,22,15
260,39306484.0457787,0.0, 1, 1,15,296945.477314353, 4, 7,30
291,0.0,0.0, 1, 1,15,0.0, 1, 1,15
322,39306484.0457796,0.0, 1, 1,15,296945.477314353, 4, 7,30
323,1027337.73945938,0.0, 1, 1,15,39119.5393539412, 4, 8,60
324,0.0,0.0, 1, 1,15,0.0, 1, 1,15
325,1027337.73945941,0.0, 1, 1,15,39119.5393539434, 4, 8,60
408,93314129.0847999,0.0, 1, 1,15,166632.373365714, 1, 7,15
461,56080920.4913622,0.0, 1, 1,15,100144.500877432, 1, 7,15
4,90, 3
8,51378180.1264208,7056.14998989483, 1, 9,15,23520.4999663161, 1, 1,15
9,30877806.6400028,4240.68027467533, 1, 9,15,14135.6009155844, 1, 1,15
71,34673963.1048768,0.0, 1, 1,15,42054.5337839624, 1,20,15
93,20838728.1441368,0.0, 1, 1,15,25274.3822245443, 1,20,15
125,41886315.6488265,6007.79054056605, 1, 1,15,30038.9527028303, 1,19,15
137,25173284.6956459,3610.62603207776, 1, 1,15,18053.1301603888, 1,19,15
138,993023487.412181,0.0, 1, 1,15,1809709.55835012, 6,11,45
139,0.0,0.0, 1, 1,15,0.0, 1, 1,15
140,30.9255096588185,20.2550107163748, 9, 7,45,44.3526346718498,19,15,15
141,30.0060458606401,23.9527006986365, 9,10,30,35.741571133955,19,22,60
142,30.1895566967921,20., 9, 7,60,44.0253565658974,19,15,15
143,30.5575331778053,20.1275053581874, 9, 7,45,44.1889956188736,19,15,15
144,29.4316137272455,23.3720912804555, 9,10,45,35.3943287572911,19,20,45
145,29.7188297939428,23.6633079927117, 9,10,45,35.5412328476844,19,21,60
146,238986033.865419,9903.362475656, 9,10,17,109219.054193178, 7,14,30
147,0.0,0.0, 1, 1, 7,0.0, 1, 1, 7
148,0.379977698203554,0.37048661610291,31, 7,30,0.395003227443314, 7,14,30
149,140783419.040994,6421.30315352296, 9,10,30,64946.7046607591, 6, 3,60
150,0.0,0.0, 1, 1, 7,0.0, 1, 1, 7
151,0.37907875069051,0.366279042359527,11,15,60,0.391161763536062, 8, 3,60
224,30.1895566967921,20., 9, 7,60,44.0253565658974,19,15,15
225,16.9950019342978,4.63717367461359, 7,14,45,34.3523032415206,28, 6,60
258,29.4316137272455,23.359943484531, 9,10,45,35.3943287572911,19,20,45
259,17.1087187667218,6.38337585438886, 7,17,60,28.3940331762822,28, 7,60
260,226385.683194632,0.0, 1, 1, 7,43643.4594290288, 9, 7,45
291,0.0,0.0, 1, 1, 7,0.0, 1, 1, 7
322,226385.683194634,0.0, 1, 1, 7,43643.4594290288, 9, 7,45
323,0.0,0.0, 1, 1, 7,0.0, 1, 1, 7
324,0.0,0.0, 1, 1, 7,0.0, 1, 1, 7
325,0.0,0.0, 1, 1, 7,0.0, 1, 1, 7
408,103312071.486743,0.0, 1, 1, 7,166632.373365714, 1, 7,15
461,62089590.5440082,0.0, 1, 1, 7,100144.500877432, 1, 7,15
4,120, 4
8,50145705.9281857,7056.14998989483, 1,15,15,23520.4999663161, 1, 1,15
9,30137101.1520262,4240.68027467533, 1,15,15,14135.6009155844, 1, 1,15
71,33223081.6893301,0.0, 1, 1,15,42054.5337839624, 1,19,15
93,19966761.9573901,0.0, 1, 1,15,25274.3822245443, 1,19,15
125,40372352.4326039,6007.79054056605, 1, 1,15,30038.9527028303, 1,19,15
137,24263406.9355623,3610.62603207776, 1, 1,15,18053.1301603888, 1,19,15
138,738735475.911872,0.0, 1, 1,15,1523347.79365011, 2,11,30
139,0.0,0.0, 1, 1,15,0.0, 1, 1,15
140,31.1381983038384,19.7860929298512,26, 6,45,46.3805589361598,10,14,45
141,30.5150735982413,22.987260911387,26,10,30,39.7996379257133,11,21,60
142,30.5824704142939,20.,26, 6,45,45.9441988349607,10,14,45
143,30.8603343590662,19.8930464649256,26, 6,45,46.1623788855602,10,14,45
144,30.1300826090796,22.6059953287674,26,11,15,39.5882648957716,11,19,60
145,30.3225781036605,22.7975651292688,26,10,30,39.6414066255047,11,21,30
146,179511974.622469,10988.3758816495, 7,10, 3,100978.659116584,11,22,60
147,0.0,0.0, 1, 1,15,0.0, 1, 1,15
148,0.371963927901393,0.364875385168359,19,12,60,0.383789581681899, 1,14,15
149,106533650.933878,6554.05513479445, 7,10,30,61662.6959420174,11,22,60
150,0.0,0.0, 1, 1,15,0.0, 1, 1,15
151,0.371450156336907,0.357744839017086,19,12,60,0.382573974798806, 1, 3,22
224,30.5824704142939,20.,26, 6,45,45.9441988349607,10,14,45
225,25.3573866581645,7.84312089826444,11,16,60,52.5533001992671,20,23,45
258,30.1300826090796,22.5975192710191,26,11,15,39.5882648957716,11,19,60
259,25.0886919120399,10.2235747299727,11,16,60,44.2785276981096,25, 2,45
260,556435.940684136,0.0, 1, 1,15,58967.7371780562,26, 6,45
291,0.0,0.0, 1, 1,15,0.0, 1, 1,15
322,556435.940684152,0.0, 1, 1,15,58967.7371780571,26, 6,45
323,0.0,0.0, 1, 1,15,0.0, 1, 1,15
324,0.0,0.0, 1, 1,15,0.0, 1, 1,15
325,0.0,0.0, 1, 1,15,0.0, 1, 1,15
408,99979424.0194285,0.0, 1, 1,15,166632.373365714, 1, 6,15
461,60086700.5264595,0.0, 1, 1,15,100144.500877432, 1, 6,15
4,151, 5
8,51378180.1264207,7056.14998989483, 1, 8,15,23520.4999663161, 1, 1,15
9,30877806.6400028,4240.68027467533, 1, 8,15,14135.6009155844, 1, 1,15
71,34673963.1048768,0.0, 1, 1,15,42054.5337839624, 1,19,15
93,20838728.1441368,0.0, 1, 1,15,25274.3822245443, 1,19,15
125,41886315.6488265,6007.79054056605, 1, 1,15,30038.9527028303, 1,18,15
137,25173284.6956459,3610.62603207776, 1, 1,15,18053.1301603888, 1,18,15
138,557069560.479059,0.0, 1, 1,15,974314.493020297, 5,11,30
139,0.0,0.0, 1, 1,15,0.0, 1, 1,15
140,31.7421878314376,23.2072233832909,30, 6,45,40.1892215570525,17,14,30
141,31.5763702344894,25.6251085955514,30, 9,15,37.0143252436339,26,22,60
142,31.3280577418743,22.9853673615766,30, 6,60,39.7446900950294,26,14,30
143,31.535122786656,23.1017627938334,30, 6,60,39.9556086717818,17,14,15
144,31.328948673696,25.4911235588094,30, 9,30,36.9558629839458,26,21,60
145,31.4526594540926,25.5598716448406,30, 9,30,36.9705669846051,26,21,60
146,146222488.367198,6502.80563728,21,19,60,84947.4852937966, 8, 1,60
147,0.0,0.0, 1, 1,15,0.0, 1, 1,15
148,0.365847418010881,0.357501357395269,23,15,60,0.374630977794291, 2,15,22
149,88983665.2801794,0.0,21,19,60,54711.2592995099,17, 5,60
150,202.473470166909,0.0, 1, 1,15,202.473470166909,21,19,60
151,0.365875573750236,0.35271326961418,23,15,60,0.377776608589625, 1, 3,60
224,31.3280577418743,22.9853673615766,30, 6,60,39.7446900950294,26,14,30
225,33.6272959431024,12.6341611536856, 8,15,30,62.4884425761403,29, 4,30
258,31.328948673696,25.4894079541513,30, 9,22,36.9558629839458,26,21,60
259,32.9148236252042,15.6373581531733, 8,16,60,56.0283654096773,28,15,30
260,0.0,0.0, 1, 1,15,0.0, 1, 1,15
291,0.0,0.0, 1, 1,15,0.0, 1, 1,15
322,0.0,0.0, 1, 1,15,0.0, 1, 1,15
323,0.0,0.0, 1, 1,15,0.0, 1, 1,15
324,0.0,0.0, 1, 1,15,0.0, 1, 1,15
325,0.0,0.0, 1, 1,15,0.0, 1, 1,15
408,103312071.486743,0.0, 1, 1,15,166632.373365714, 1, 6,15
461,62089590.5440082,0.0, 1, 1,15,100144.500877432, 1, 6,15
4,181, 6
8,49769377.9287247,7056.14998989483, 1, 8,15,23520.4999663161, 1, 1,15
9,29910931.5373769,4240.68027467533, 1, 8,15,14135.6009155844, 1, 1,15
71,33517463.4258178,0.0, 1, 1,15,42054.5337839624, 1,19,15
93,20143682.6329619,0.0, 1, 1,15,25274.3822245443, 1,19,15
125,40516539.4055774,6007.79054056605, 1, 1,15,30038.9527028303, 1,18,15
137,24350061.9603322,3610.62603207776, 1, 1,15,18053.1301603888, 1,18,15
138,479001752.288265,0.0, 1, 1,15,815668.775876739, 1,11,30
139,0.0,0.0, 1, 1,15,0.0, 1, 1,15
140,35.0942129040416,28.3095718649179, 1, 6,45,42.8881391751292,10,15,60
141,34.8376912254723,30.2132993995335, 1, 9,30,40.0807708789123,11,22,60
142,34.7357112944061,27.8235567761547, 1, 5,60,42.5259174929373,10,14,60
143,34.9149620992239,28.0965787691434, 1, 6,45,42.6839905156408,10,14,60
144,34.6386983238987,29.8607008634924, 1, 9,30,40.0954670546348,11,20,60
145,34.7381947746855,30.0370001315129, 1, 9,30,40.0508091861511,11,20,60
146,132423520.612718,12257.5390888931,15, 9,52,67524.4310121187, 8, 3,15
147,0.0,0.0, 1, 1,15,0.0, 1, 1,15
148,0.363402506234765,0.356533115567449,14,15,60,0.370931890638955,12, 3,22
149,80059256.591617,2907.2221360579, 1,15,60,46041.1618836403,12, 7,15
150,0.0,0.0, 1, 1,15,0.0, 1, 1,15
151,0.363305799070908,0.353630155813798,15,15,60,0.374012464329907,12, 6,45
224,34.7357112944061,27.8235567761547, 1, 5,60,42.5259174929373,10,14,60
225,38.5699486066034,13.7729538863904, 1,14,60,66.8030647192872,14, 5,60
258,34.6386983238987,29.8572737007563, 1, 9,22,40.0954670546348,11,20,60
259,38.2371159370743,16.9222430653457, 1,15,15,60.5486803524962,14, 5,60
260,0.0,0.0, 1, 1,15,0.0, 1, 1,15
291,0.0,0.0, 1, 1,15,0.0, 1, 1,15
322,0.0,0.0, 1, 1,15,0.0, 1, 1,15
323,0.0,0.0, 1, 1,15,0.0, 1, 1,15
324,0.0,0.0, 1, 1,15,0.0, 1, 1,15
325,0.0,0.0, 1, 1,15,0.0, 1, 1,15
408,99979424.0194285,0.0, 1, 1,15,166632.373365714, 1, 6,15
461,60086700.5264595,0.0, 1, 1,15,100144.500877432, 1, 6,15
4,212, 7
8,51754508.1258818,7056.14998989483, 1,15,15,23520.4999663161, 1, 1,15
9,31103976.2546522,4240.68027467533, 1,15,15,14135.6009155844, 1, 1,15
71,34379581.3683891,0.0, 1, 1,15,42054.5337839624, 1,19,15
93,20661807.468565,0.0, 1, 1,15,25274.3822245443, 1,19,15
125,41742128.6758529,6007.79054056605, 1, 1,15,30038.9527028303, 1,19,15
137,25086629.6708761,3610.62603207776, 1, 1,15,18053.1301603888, 1,19,15
138,417193586.245171,0.0, 1, 1,15,796991.913800402,20,11,30
139,0.0,0.0, 1, 1,15,0.0, 1, 1,15
140,27.1307483019235,24.0863243404456,12, 6,30,37.3244801688493, 1,14,15
141,25.8814979865961,24.5644986887295,17,22,15,33.9926349818721, 1, 1,15
142,26.0714262400759,23.9702443259984, 3,14,15,37.0574794359625, 1,13,60
143,26.6010872709997,24.1346904646219,12, 4,30,37.1417456460019, 1,13,60
144,25.4301025265242,23.9661614727768, 3,14,15,33.6380029405356, 1, 1,15
145,25.6558002565602,24.2859098443939,17,21,60,33.8153189612038, 1, 1,15
146,26882390.5905199,0.0, 1,14, 2,43043.5825390425, 1, 1,15
147,23879852.9449276,0.0, 1, 1,15,53440.9716047171,30,14,30
148,0.350568734105462,0.341159504267375,20,15,60,0.360601771004718, 1, 1,60
149,13078421.0987015,0.0, 1,14, 2,30094.4540471518, 1, 3,60
150,14204688.7636032,0.0, 1, 1,15,30712.9129036179,30,14,45
151,0.349820857194917,0.341146931169463,20,15,60,0.362901274461254, 1, 3,60
224,26.0714262400759,23.4484619674436, 2,14, 5,37.0574794359625, 1,13,60
225,71.2539454347998,40.6179192518258,12,13,60,90.6612404686432, 2,14, 3
258,25.4301025265242,23.5486428913596,24,14, 3,33.6380029405356, 1, 1,15
259,73.7427073657661,50.7940623984678, 1,13,60,90.3682220735607, 2,14, 3
260,0.0,0.0, 1, 1,15,0.0, 1, 1,15
291,437173952.771044,0.0, 1, 1,15,1716175.5198432, 1,14,45
322,5.415665782493306E-006,0.0, 1, 1,15,1.352645995211788E-007,28,14,60
323,0.0,0.0, 1, 1,15,0.0, 1, 1,15
324,152677848.058237,0.0, 1, 1,15,856954.034279025, 1,14,45
325,1.162424609901791E-006,0.0, 1, 1,15,7.039488991722465E-008, 1,14,45
408,103312071.486743,0.0, 1, 1,15,166632.373365714, 1, 6,15
461,62089590.5440082,0.0, 1, 1,15,100144.500877432, 1, 6,15
4,243, 8
8,51378180.1264208,7056.14998989483, 1, 8,15,23520.4999663161, 1, 1,15
9,30877806.6400028,4240.68027467533, 1, 8,15,14135.6009155844, 1, 1,15
71,34673963.1048768,0.0, 1, 1,15,42054.5337839624, 1,19,15
93,20838728.1441368,0.0, 1, 1,15,25274.3822245443, 1,19,15
125,41886315.6488265,6007.79054056605, 1, 1,15,30038.9527028303, 1,18,15
137,25173284.6956459,3610.62603207776, 1, 1,15,18053.1301603888, 1,18,15
138,624840074.930886,0.0, 1, 1,15,1309082.58371528,30,11,30
139,0.0,0.0, 1, 1,15,0.0, 1, 1,15
140,28.0630196771756,23.3799468117905,26, 6,60,39.894937209187,30,14,15
141,26.0492755073677,24.5506587043636,26, 7,60,28.810405391992,13,14,15
142,26.6166967811381,23.1848572012068,26, 6,60,39.7811054633035,30,13,60
143,27.3398582291569,23.2824020064987,26, 6,60,39.7389581329868,30,13,60
144,25.4719777334593,23.9653677924204,25,14,15,28.9727064218772, 7,13,60
145,25.7606266204135,24.4086491867249,25,21,60,28.8119938840144, 7,13,60
146,31999636.3633518,0.0, 1,14, 1,52205.9857174748,27,13,30
147,25329623.3849153,0.0, 1, 1,15,52960.2067834245, 7,16,15
148,0.350663399048236,0.338740262295691, 7,15,60,0.362259863556307,28,13,60
149,13542079.5537338,0.0, 1,13,15,20030.3724863082,28, 6,60
150,15250251.7201235,0.0, 1, 1,15,31514.173494778, 7,15,60
151,0.349333464026343,0.338732285844162, 7,15,60,0.357903064341045,28, 6,60
224,26.6166967811381,23.1848572012068,26, 6,60,39.7811054633035,30,13,60
225,68.4788668599973,27.0788333080072,30,13,60,92.134751128159, 2, 5,60
258,25.4719777334593,23.5923810648125,25,14, 5,28.9727064218772, 7,13,60
259,72.3480534816728,49.2954773169416,30,13,60,93.1422268927958, 2, 5,60
260,0.0,0.0, 1, 1,15,0.0, 1, 1,15
291,613006543.722037,0.0, 1, 1,15,2141544.19874256,30,14,45
322,7.585630896755902E-006,0.0, 1, 1,15,2.120032149832696E-007,27,14,60
323,0.0,0.0, 1, 1,15,0.0, 1, 1,15
324,185873462.375988,0.0, 1, 1,15,398734.320791583,13,14,45
325,1.278346681843345E-006,0.0, 1, 1,15,4.778257789439522E-008,12,15,45
408,103312071.486743,0.0, 1, 1,15,166632.373365714, 1, 6,15
461,62089590.5440082,0.0, 1, 1,15,100144.500877432, 1, 6,15
4,273, 9
8,49957541.9284552,7056.14998989483, 1, 8,15,23520.4999663161, 1, 1,15
9,30024016.3447015,4240.68027467533, 1, 8,15,14135.6009155844, 1, 1,15
71,33370272.557574,0.0, 1, 1,15,42054.5337839624, 1,19,15
93,20055222.295176,0.0, 1, 1,15,25274.3822245443, 1,19,15
125,40444445.9190906,6007.79054056605, 1, 1,15,30038.9527028303, 1,18,15
137,24306734.4479473,3610.62603207776, 1, 1,15,18053.1301603888, 1,18,15
138,712410068.693303,0.0, 1, 1,15,1591555.98957368,19,11,30
139,0.0,0.0, 1, 1,15,0.0, 1, 1,15
140,27.4254454369488,22.6419669890617,30, 7,30,40.118384623997,22,14,15
141,25.6310115022659,24.0760140349914,30, 8,15,28.6469156830666, 7,14,15
142,25.9205389449633,22.4018139118517,30, 7,30,39.9797704943679,22,13,60
143,26.672992190956,22.5218904504567,30, 7,30,39.9093459341435,22,13,60
144,25.0383398171381,23.9355070079357,29,14,15,28.718345989468, 7,13,60
145,25.334675659702,24.0157372738329,30, 7,60,28.5859175516517, 7,13,60
146,56042163.9605282,0.0, 1,14, 2,63934.5833731907, 9,13,60
147,2906449.22807017,0.0, 1, 1,15,24006.6170082787,20,18,60
148,0.354738864055385,0.342180863626452, 6,15,60,0.369560717527226,21,13,22
149,28757296.2320203,0.0, 1,14, 1,29601.6835998962,15,24,60
150,1782754.64315456,0.0, 1, 1,15,16205.7815939773,20,18,60
151,0.353710724676036,0.342181196375172, 6,15,60,0.362769684667847,30,24,60
224,25.9205389449633,22.4018139118517,30, 7,30,40.0507669476148,22,13,60
225,59.550657141092,18.9951673158898,16,13,60,85.6590554576761, 9, 6,60
258,25.0383398171381,23.5360002770509,17,14, 3,28.718345989468, 7,13,60
259,61.2034439095768,33.4432157171178,16,13,60,83.642911158885, 9, 6,60
260,0.0,0.0, 1, 1,15,0.0, 1, 1,15
291,561747999.22018,0.0, 1, 1,15,2204045.95792077,22,14,45
322,1.257012669952928E-005,0.0, 1, 1,15,2.379920260864310E-007,16,14,60
323,0.0,0.0, 1, 1,15,0.0, 1, 1,15
324,142192986.70564,0.0, 1, 1,15,387077.45535206, 7,14,45
325,2.934205198812379E-006,0.0, 1, 1,15,3.923901203961577E-008, 9,14,45
408,99979424.0194285,0.0, 1, 1,15,166632.373365714, 1, 6,15
461,60086700.5264595,0.0, 1, 1,15,100144.500877432, 1, 6,15
4,304,10
8,51566344.1261512,7056.14998989483, 1,15,15,23520.4999663161, 1, 1,15
9,30990891.4473275,4240.68027467533, 1,15,15,14135.6009155844, 1, 1,15
71,34526772.2366329,0.0, 1, 1,15,42054.5337839624, 1,19,15
93,20750267.8063509,0.0, 1, 1,15,25274.3822245443, 1,19,15
125,41814222.1623397,6007.79054056605, 1, 1,15,30038.9527028303, 1,19,15
137,25129957.183261,3610.62603207776, 1, 1,15,18053.1301603888, 1,19,15
138,915403247.010591,0.0, 1, 1,15,1928152.42089255,31,11,30
139,0.0,0.0, 1, 1,15,0.0, 1, 1,15
140,36.3527040552851,22.6079024454084, 1, 7,30,49.0388082741543,17,14,45
141,35.2344768818215,24.2246788818854, 1, 8,15,40.7188000851858, 9,21,60
142,35.7532360412306,22.2689875811185, 1, 7,30,48.6641304807805,17,14,30
143,36.0529700482579,22.4384450132634, 1, 7,30,48.8372591194418,17,14,45
144,34.7853893244678,23.9848692316152, 1, 7,60,40.3937562434651, 9,19,60
145,35.0099331031446,24.1091982438573, 1, 7,60,40.5216499107255, 9,21,30
146,212174271.694692,7043.02404345932, 2,10, 2,109127.085234664,15,24,60
147,0.0,0.0, 1, 1,15,0.0, 1, 1,15
148,0.374368389032427,0.360503780700304, 1, 6,60,0.39080816148848,31,13, 7
149,124121755.719308,4058.14844821297, 2,10,15,69096.94847178,15,24,60
150,0.0,0.0, 1, 1,15,0.0, 1, 1,15
151,0.37322971620225,0.35787945510571, 1,12,60,0.384500489305931,18,24,22
224,35.7532360412306,22.2689875811185, 1, 7,30,48.6641304807805,17,14,30
225,25.380440107983,6.29629281462506,19,14,60,53.4049170291038,28,24,45
258,34.7853893244678,23.9735250210506, 1, 7,60,40.3937562434651, 9,19,60
259,25.7287255404738,10.4825910989999,19,16,22,48.4307077512216, 1, 1,15
260,0.0,0.0, 1, 1,15,0.0, 1, 1,15
291,0.0,0.0, 1, 1,15,0.0, 1, 1,15
322,0.0,0.0, 1, 1,15,0.0, 1, 1,15
323,0.0,0.0, 1, 1,15,0.0, 1, 1,15
324,0.0,0.0, 1, 1,15,0.0, 1, 1,15
325,0.0,0.0, 1, 1,15,0.0, 1, 1,15
408,103312071.486743,0.0, 1, 1,15,166632.373365714, 1, 6,15
461,62089590.5440082,0.0, 1, 1,15,100144.500877432, 1, 6,15
4,334,11
8,49769377.9287248,7056.14998989483, 1, 9,15,23520.4999663161, 1, 1,15
9,29910931.5373768,4240.68027467533, 1, 9,15,14135.6009155844, 1, 1,15
71,33517463.4258178,0.0, 1, 1,15,42054.5337839624, 1,20,15
93,20143682.6329619,0.0, 1, 1,15,25274.3822245443, 1,20,15
125,40516539.4055774,6007.79054056605, 1, 1,15,30038.9527028303, 1,19,15
137,24350061.9603322,3610.62603207776, 1, 1,15,18053.1301603888, 1,19,15
138,867669142.580003,0.0, 1, 1,15,1917140.96186706,17,11,30
139,0.0,0.0, 1, 1,15,0.0, 1, 1,15
140,29.9765806281477,18.7282175904306,11, 8,15,46.3600231658297, 6,15,15
141,29.4152025139973,22.2843155532122,11, 9,45,38.3372588939176, 7,22,15
142,29.3756040267579,19.9999999999999,11, 5,60,45.9987517012933, 6,14,60
143,29.6760923274528,19.3641087952153,11, 8,15,46.1775062407142, 6,15,15
144,28.9198940983901,21.819055695007,11, 8,60,38.0068473070985, 7,20,60
145,29.1675483061937,22.0769533741933,11, 8,60,38.1542776158505, 7,21,60
146,206637603.355595,10337.6845356507,25, 9,32,101913.485752999,26,13,30
147,0.0,0.0, 1, 1,15,0.0, 1, 1,15
148,0.376472720132141,0.365461996488914,19, 8,15,0.391367805572725,23,12,60
149,123250512.706303,6294.16634395256,24,13,48,59672.7509097083, 8,11,60
150,0.0,0.0, 1, 1,15,0.0, 1, 1,15
151,0.375940406178414,0.365367245429617, 5,15,60,0.386184874132562,23, 7,30
224,29.3756040267579,19.9999999999999,11, 5,60,45.9987517012933, 6,14,60
225,24.8599867945117,7.90896875131684,23,13,15,49.705050064407,19, 8,15
258,28.9198940983901,21.819055695007,11, 8,60,38.0068473070985, 7,20,60
259,24.7675534198595,12.2058035002334,23,15,15,42.5143262429317,19,11,15
260,9401147.68063881,0.0, 1, 1,15,172890.725773355,30,24,60
291,0.0,0.0, 1, 1,15,0.0, 1, 1,15
322,9401147.68063907,0.0, 1, 1,15,172890.72577336,30,24,60
323,0.0,0.0, 1, 1,15,0.0, 1, 1,15
324,0.0,0.0, 1, 1,15,0.0, 1, 1,15
325,0.0,0.0, 1, 1,15,0.0, 1, 1,15
408,99979424.0194285,0.0, 1, 1,15,166632.373365714, 1, 7,15
461,60086700.5264595,0.0, 1, 1,15,100144.500877432, 1, 7,15
4,365,12
8,51754508.1258818,7056.14998989483, 1, 9,15,23520.4999663161, 1, 1,15
9,31103976.2546522,4240.68027467533, 1, 9,15,14135.6009155844, 1, 1,15
71,34379581.3683891,0.0, 1, 1,15,42054.5337839624, 1,20,15
93,20661807.468565,0.0, 1, 1,15,25274.3822245443, 1,20,15
125,41742128.6758529,6007.79054056605, 1, 1,15,30038.9527028303, 1,19,15
137,25086629.6708761,3610.62603207776, 1, 1,15,18053.1301603888, 1,19,15
138,968039215.881832,0.0, 1, 1,15,2068797.07449027,31,12,15
139,0.0,0.0, 1, 1,15,0.0, 1, 1,15
140,25.6433820166575,17.4821207732743,31, 6,60,37.5435554276753, 9,13,30
141,24.6561352223719,19.8830087028208,31, 9,15,28.1648477774916,28,22,45
142,25.1731237984736,19.9999999999998,15, 3,45,37.5506462106926, 9,13,30
143,25.4082529075656,18.7410603866371,31, 6,60,37.5471008191839, 9,13,30
144,24.0592128641777,19.9999999999999,31, 6,15,27.9170277834256,28,20,60
145,24.3576740432748,19.9415043514104,31, 9,15,28.0140596432709,28,22,15
146,247492090.746609,15788.3198885553,27,11,18,144414.304152221,31,13,45
147,0.0,0.0, 1, 1,15,0.0, 1, 1,15
148,0.382513598814474,0.368032627025944,25, 3,60,0.408185659332466,31,13,30
149,142749750.710258,6720.0518423842,27,14, 3,69575.9082162064,31,23,60
150,0.0,0.0, 1, 1,15,0.0, 1, 1,15
151,0.381102471632893,0.367642942024106,29,15,60,0.397049994235798,31,21,60
224,25.1731237984736,19.9999999999998,15, 3,45,37.7047020877807, 9,13,30
225,17.3436797831167,4.21767596234779,20,13,30,41.8208773865387,25, 3,60
258,24.0592128641777,19.9999999999999,31, 6,15,27.9170277834256,28,20,60
259,17.5226848411193,6.50417105541167,16,19,60,36.5218477255405,25, 4,45
260,68153687.6749458,0.0, 1, 9,15,341579.525969906,31, 6,60
291,0.0,0.0, 1, 1,15,0.0, 1, 1,15
322,68153687.6749474,0.0, 1, 9,15,341579.525969908,31, 6,60
323,1338488.67911313,0.0, 1, 1,15,46716.7839222638,31, 6,60
324,0.0,0.0, 1, 1,15,0.0, 1, 1,15
325,1338488.67911317,0.0, 1, 1,15,46716.7839222639,31, 6,60
408,103312071.486743,0.0, 1, 1,15,166632.373365714, 1, 7,15
461,62089590.5440082,0.0, 1, 1,15,100144.500877432, 1, 7,15
End of Data
 Number of Records Written=         384
