Program Version,EnergyPlus, Version 8.4.0-09f5359d8a, YMD=2023.08.02 14:39
1,5,Environment Title[],Latitude[deg],Longitude[deg],Time Zone[],Elevation[m]
2,6,Day of Simulation[],Month[],Day of Month[],DST Indicator[1=yes 0=no],Hour[],StartMinute[],EndMinute[],DayType
3,3,Cumulative Day of Simulation[],Month[],Day of Month[],DST Indicator[1=yes 0=no],DayType  ! When Daily Report Variables Requested
4,2,Cumulative Days of Simulation[],Month[]  ! When Monthly Report Variables Requested
5,1,Cumulative Days of Simulation[] ! When Run Period Report Variables Requested
8,9,PERIM,Zone People Total Heating Energy [J] !Monthly  [Value,Min,Day,Hour,Minute,Max,Day,Hour,Minute]
9,9,CORE,Zone People Total Heating Energy [J] !Monthly  [Value,Min,Day,Hour,Minute,Max,Day,Hour,Minute]
71,9,PERIM,Zone Lights Electric Energy [J] !Monthly  [Value,Min,Day,Hour,Minute,Max,Day,Hour,Minute]
93,9,CORE,Zone Lights Electric Energy [J] !Monthly  [Value,Min,Day,Hour,Minute,Max,Day,Hour,Minute]
125,9,PERIM,Zone Electric Equipment Electric Energy [J] !Monthly  [Value,Min,Day,Hour,Minute,Max,Day,Hour,Minute]
137,9,CORE,Zone Electric Equipment Electric Energy [J] !Monthly  [Value,Min,Day,Hour,Minute,Max,Day,Hour,Minute]
138,9,PERIM,Zone Windows Total Transmitted Solar Radiation Energy [J] !Monthly  [Value,Min,Day,Hour,Minute,Max,Day,Hour,Minute]
139,9,CORE,Zone Windows Total Transmitted Solar Radiation Energy [J] !Monthly  [Value,Min,Day,Hour,Minute,Max,Day,Hour,Minute]
140,9,PERIM,Zone Mean Radiant Temperature [C] !Monthly [Value,Min,Day,Hour,Minute,Max,Day,Hour,Minute]
141,9,CORE,Zone Mean Radiant Temperature [C] !Monthly [Value,Min,Day,Hour,Minute,Max,Day,Hour,Minute]
142,9,PERIM,Zone Mean Air Temperature [C] !Monthly [Value,Min,Day,Hour,Minute,Max,Day,Hour,Minute]
143,9,PERIM,Zone Operative Temperature [C] !Monthly [Value,Min,Day,Hour,Minute,Max,Day,Hour,Minute]
144,9,CORE,Zone Mean Air Temperature [C] !Monthly [Value,Min,Day,Hour,Minute,Max,Day,Hour,Minute]
145,9,CORE,Zone Operative Temperature [C] !Monthly [Value,Min,Day,Hour,Minute,Max,Day,Hour,Minute]
146,9,PERIM,Zone Infiltration Total Heat Loss Energy [J] !Monthly  [Value,Min,Day,Hour,Minute,Max,Day,Hour,Minute]
147,9,PERIM,Zone Infiltration Total Heat Gain Energy [J] !Monthly  [Value,Min,Day,Hour,Minute,Max,Day,Hour,Minute]
148,9,PERIM,Zone Infiltration Air Change Rate [ach] !Monthly [Value,Min,Day,Hour,Minute,Max,Day,Hour,Minute]
149,9,CORE,Zone Infiltration Total Heat Loss Energy [J] !Monthly  [Value,Min,Day,Hour,Minute,Max,Day,Hour,Minute]
150,9,CORE,Zone Infiltration Total Heat Gain Energy [J] !Monthly  [Value,Min,Day,Hour,Minute,Max,Day,Hour,Minute]
151,9,CORE,Zone Infiltration Air Change Rate [ach] !Monthly [Value,Min,Day,Hour,Minute,Max,Day,Hour,Minute]
224,9,PERIM,Zone Air Temperature [C] !Monthly [Value,Min,Day,Hour,Minute,Max,Day,Hour,Minute]
225,9,PERIM,Zone Air Relative Humidity [%] !Monthly [Value,Min,Day,Hour,Minute,Max,Day,Hour,Minute]
258,9,CORE,Zone Air Temperature [C] !Monthly [Value,Min,Day,Hour,Minute,Max,Day,Hour,Minute]
259,9,CORE,Zone Air Relative Humidity [%] !Monthly [Value,Min,Day,Hour,Minute,Max,Day,Hour,Minute]
260,9,PERIM IDEAL LOADS AIR,Zone Ideal Loads Supply Air Total Heating Energy [J] !Monthly  [Value,Min,Day,Hour,Minute,Max,Day,Hour,Minute]
291,9,PERIM IDEAL LOADS AIR,Zone Ideal Loads Supply Air Total Cooling Energy [J] !Monthly  [Value,Min,Day,Hour,Minute,Max,Day,Hour,Minute]
322,9,PERIM IDEAL LOADS AIR,Zone Ideal Loads Zone Total Heating Energy [J] !Monthly  [Value,Min,Day,Hour,Minute,Max,Day,Hour,Minute]
323,9,CORE IDEAL LOADS AIR,Zone Ideal Loads Supply Air Total Heating Energy [J] !Monthly  [Value,Min,Day,Hour,Minute,Max,Day,Hour,Minute]
324,9,CORE IDEAL LOADS AIR,Zone Ideal Loads Supply Air Total Cooling Energy [J] !Monthly  [Value,Min,Day,Hour,Minute,Max,Day,Hour,Minute]
325,9,CORE IDEAL LOADS AIR,Zone Ideal Loads Zone Total Heating Energy [J] !Monthly  [Value,Min,Day,Hour,Minute,Max,Day,Hour,Minute]
408,9,DHW PERIM,Water Use Equipment Heating Energy [J] !Monthly  [Value,Min,Day,Hour,Minute,Max,Day,Hour,Minute]
461,9,DHW CORE,Water Use Equipment Heating Energy [J] !Monthly  [Value,Min,Day,Hour,Minute,Max,Day,Hour,Minute]
End of Data Dictionary
1,ARCHSIM,  37.57, 126.97,   9.00,  87.10
4,31, 1
8,51566344.1320978,7056.14999070856, 1,16,15,23520.4999690285, 1, 1,15
9,30990891.4324454,4240.680272639, 1,16,15,14135.6009087967, 1, 1,15
71,34526772.2406148,0.0, 1, 1,15,42054.5337888122, 1,20,15
93,20750267.7963869,0.0, 1, 1,15,25274.3822124078, 1,20,15
125,41814222.1671621,6007.79054125889, 1, 1,15,30038.9527062944, 1,20,15
137,25129957.171194,3610.62603034397, 1, 1,15,18053.1301517199, 1,20,15
138,584024475.162865,0.0, 1, 1,15,1560057.1775527,30,16,30
139,0.0,0.0, 1, 1,15,0.0, 1, 1,15
140,20.5937955328749,17.1676431412811,22, 8,45,28.7445396655883,30,17,45
141,20.6781934994507,19.4776138296387,22, 8,60,22.7363176279289, 4,23,60
142,21.1509107519593,19.9999999999998,14, 7,60,28.4515334646263,30,17,30
143,20.8723531424171,18.5838215706405,22, 8,45,28.590105565676,30,17,30
144,20.4037978652161,19.9999999999999,15, 7,30,22.4736308697592, 4,22,60
145,20.5409956823334,19.7388069148193,22, 8,60,22.5903212282057, 4,22,60
146,225681653.814651,12078.3959038287, 6,14, 5,109814.190840764,23, 6,60
147,0.0,0.0, 1, 1,15,0.0, 1, 1,15
148,0.380245217713275,0.362644880860871, 8,12,60,0.394181019243196,23, 6,60
149,130929981.502898,5273.82552154832, 6,15,50,66001.464091142,23, 6,60
150,0.0,0.0, 1, 1,15,0.0, 1, 1,15
151,0.37929406623955,0.361957308697341, 6,15,60,0.394180938039874,23, 6,60
224,21.1509107519593,19.9999999999998,14, 7,60,28.4515334646263,30,17,30
225,17.2910261889442,5.04492575306919,16,16,60,34.5992995739087, 2,24,30
258,20.4037978652161,19.9999999999999,15, 7,30,22.4736308697592, 4,22,60
259,17.4184605271266,6.1222618033629,14,20,15,34.3327796796073, 2, 7,45
260,327991435.627589,0.0, 1,13,60,372432.541608561,22, 8,45
291,0.0,0.0, 1, 1,15,0.0, 1, 1,15
322,327991435.627596,0.0, 1,13,60,372432.541608577,22, 8,45
323,41648296.2305654,0.0, 1, 1,15,66393.32935076,22, 8,60
324,0.0,0.0, 1, 1,15,0.0, 1, 1,15
325,41648301.4443166,0.0, 1, 1,15,66393.3293507632,22, 8,60
408,103312071.498657,0.0, 1, 1,15,166632.37338493, 1, 7,15
461,62089590.5141934,0.0, 1, 1,15,100144.500829344, 1, 7,15
4,59, 2
8,46551773.538701,7056.14999070856, 1, 9,15,23520.4999690285, 1, 1,15
9,27977181.3186901,4240.680272639, 1, 9,15,14135.6009087967, 1, 1,15
71,31204464.0712986,0.0, 1, 1,15,42054.5337888122, 1,20,15
93,18753591.6016066,0.0, 1, 1,15,25274.3822124078, 1,20,15
125,37776986.9234361,6007.79054125889, 1, 1,15,30038.9527062944, 1,19,15
137,22703616.4788029,3610.62603034397, 1, 1,15,18053.1301517199, 1,19,15
138,623584536.997759,0.0, 1, 1,15,1636693.6941355,26,16,30
139,0.0,0.0, 1, 1,15,0.0, 1, 1,15
140,22.3757106851965,17.4786850848433, 4, 7,30,34.6614341160285,24,17,60
141,22.0215067298643,19.5614822381373, 4, 8,60,27.186935721501,24,23,60
142,22.4810206508306,19.9999999999998, 9, 8,30,34.6582734784299,24,17,60
143,22.4283656680135,18.7393425424217, 4, 7,30,34.6598537972292,24,17,60
144,21.6437565661941,19.9999999999999, 9,11,15,26.8087334781739,24,22,60
145,21.8326316480292,19.7807411190686, 4, 8,60,26.9791557837454,24,23,60
146,192041074.425566,10087.3099110404,24,14,33,104684.885524782, 7,17,45
147,0.0,0.0, 1, 1,15,0.0, 1, 1,15
148,0.378062246682854,0.36349278105636,23,13,15,0.392602161933402, 7,17,52
149,110700755.445109,5236.30717785117,24,15,48,60840.9388270711, 8, 3,60
150,0.0,0.0, 1, 1,15,0.0, 1, 1,15
151,0.377018065644726,0.361678025161567,23,15,60,0.390427332527477, 8, 6,60
224,22.4810206508306,19.9999999999998, 9, 8,30,34.6582734784299,24,17,60
225,17.3813508397816,4.15516588103609, 9,17,30,38.4175752795233, 7, 3,15
258,21.6437565661941,19.9999999999999, 9,11,15,26.8087334781739,24,22,60
259,17.3709616245735,5.93753505911494, 9,17,60,38.4116657266476, 3,21,60
260,176697592.433925,0.0, 1,14,30,311438.53685582, 4, 7,30
291,0.0,0.0, 1, 1,15,0.0, 1, 1,15
322,176697592.433929,0.0, 1,14,30,311438.53685582, 4, 7,30
323,16215127.7807087,0.0, 1, 1,15,51818.0201743969,11, 8,60
324,0.0,0.0, 1, 1,15,0.0, 1, 1,15
325,16215130.0140382,0.0, 1, 1,15,51818.0201743983,11, 8,60
408,93314129.0955608,0.0, 1, 1,15,166632.37338493, 1, 7,15
461,56080920.4644327,0.0, 1, 1,15,100144.500829344, 1, 7,15
4,90, 3
8,51378180.1323455,7056.14999070856, 1, 9,15,23520.4999690285, 1, 1,15
9,30877806.6251751,4240.680272639, 1, 9,15,14135.6009087967, 1, 1,15
71,34673963.1088756,0.0, 1, 1,15,42054.5337888122, 1,20,15
93,20838728.1341303,0.0, 1, 1,15,25274.3822124078, 1,20,15
125,41886315.6536572,6007.79054125889, 1, 1,15,30038.9527062944, 1,19,15
137,25173284.6835582,3610.62603034397, 1, 1,15,18053.1301517199, 1,19,15
138,801474498.883578,0.0, 1, 1,15,1696225.20306488,15,16,30
139,0.0,0.0, 1, 1,15,0.0, 1, 1,15
140,26.039319256542,18.6708655010874, 9, 7,45,39.4713848448737,19,18,15
141,25.5569893562626,20.7481711275318, 9,13,45,31.3949384200865,19,24,15
142,25.5073497980405,19.9999999999999, 2, 7,15,39.4429233664365,19,18,15
143,25.7733345272912,19.3354327505437, 9, 7,45,39.4571541056551,19,18,15
144,25.1205844109985,20.3385796568026, 9,12,30,31.1015491314184,19,23,60
145,25.3387868836306,20.5503790204255, 9,13,30,31.2455623381322,19,23,60
146,193695652.429007,10080.9826738099,30,14,20,93723.3324121053, 7,18,30
147,0.0,0.0, 1, 1,15,0.0, 1, 1,15
148,0.374548960161018,0.360868176239294,30,12,60,0.388956109441679, 7,18,15
149,114243644.101028,4771.30876570986,30,15,50,58653.5288854303, 6, 3,60
150,0.0,0.0, 1, 1,15,0.0, 1, 1,15
151,0.37409848516077,0.359113259668556,30,15,60,0.386818076798182, 8, 3,60
224,25.5073497980405,19.9999999999999, 2, 7,15,39.4429233664365,19,18,15
225,19.9042414883441,5.06107266820614, 7,17,37,35.8862223510616,29, 7,15
258,25.1205844109985,20.3385796568026, 9,12,30,31.1015491314184,19,23,60
259,19.5720034514341,7.56914624042805, 7,17,60,31.8048375379959,29, 6,60
260,19428520.8337172,0.0, 1, 1,15,168908.049188181, 9, 6,60
291,0.0,0.0, 1, 1,15,0.0, 1, 1,15
322,19428520.8337177,0.0, 1, 1,15,168908.049188185, 9, 6,60
323,0.0,0.0, 1, 1,15,0.0, 1, 1,15
324,0.0,0.0, 1, 1,15,0.0, 1, 1,15
325,0.0,0.0, 1, 1,15,0.0, 1, 1,15
408,103312071.498657,0.0, 1, 1,15,166632.37338493, 1, 7,15
461,62089590.5141934,0.0, 1, 1,15,100144.500829344, 1, 7,15
4,120, 4
8,50145705.9339685,7056.14999070856, 1,15,15,23520.4999690285, 1, 1,15
9,30137101.1375541,4240.680272639, 1,15,15,14135.6009087967, 1, 1,15
71,33223081.6931616,0.0, 1, 1,15,42054.5337888122, 1,19,15
93,19966761.9478022,0.0, 1, 1,15,25274.3822124078, 1,19,15
125,40372352.4372599,6007.79054125889, 1, 1,15,30038.9527062944, 1,19,15
137,24263406.9239115,3610.62603034397, 1, 1,15,18053.1301517199, 1,19,15
138,737221631.035285,0.0, 1, 1,15,1656364.29968662, 2,16,45
139,0.0,0.0, 1, 1,15,0.0, 1, 1,15
140,29.8603890809296,19.6050357800914,26, 7,15,45.8935959892629,10,18,30
141,29.3074059656084,21.9637405283606,27,11,45,37.5871120973493,10,23,45
142,29.3355964528912,19.9999999999999,26, 6,60,46.0238958226492,10,18,30
143,29.5979927669104,19.8025178900457,26, 7,15,45.958745905956,10,18,30
144,28.9471537426463,21.6970358071635,27,11,30,37.2527986977542,11,21,60
145,29.1272798541273,21.8311965650169,27,11,30,37.3851556678854,10,22,60
146,170481914.607779,9555.85771548315,27,14,35,99181.1231458333,11,22,60
147,0.0,0.0, 1, 1,15,0.0, 1, 1,15
148,0.370832059340306,0.358467629947357,19,12,60,0.382724534473925, 2,18,52
149,100853341.165633,3539.66928638287, 8,15,48,59272.443377846,13, 2,60
150,0.0,0.0, 1, 1,15,0.0, 1, 1,15
151,0.370391014123048,0.357564183413254,27,15,60,0.378993070227474,11, 6,60
224,29.3355964528912,19.9999999999999,26, 6,60,46.0238958226492,10,18,30
225,26.6591105160599,8.19511109964073,18,17,37,55.9557642902116,25, 3,60
258,28.9471537426463,21.6970358071635,27,11,30,37.2527986977542,11,21,60
259,26.2188356024504,12.3395523664233,11,17,15,49.3121657378284,25, 2,15
260,1571212.04709803,0.0, 1, 1,15,72147.9655854572,26, 6,60
291,0.0,0.0, 1, 1,15,0.0, 1, 1,15
322,1571212.04709807,0.0, 1, 1,15,72147.9655854589,26, 6,60
323,0.0,0.0, 1, 1,15,0.0, 1, 1,15
324,0.0,0.0, 1, 1,15,0.0, 1, 1,15
325,0.0,0.0, 1, 1,15,0.0, 1, 1,15
408,99979424.0309581,0.0, 1, 1,15,166632.37338493, 1, 6,15
461,60086700.4976065,0.0, 1, 1,15,100144.500829344, 1, 6,15
4,151, 5
8,51378180.1323455,7056.14999070856, 1, 8,15,23520.4999690285, 1, 1,15
9,30877806.6251751,4240.680272639, 1, 8,15,14135.6009087967, 1, 1,15
71,34673963.1088756,0.0, 1, 1,15,42054.5337888122, 1,19,15
93,20838728.1341303,0.0, 1, 1,15,25274.3822124078, 1,19,15
125,41886315.6536572,6007.79054125889, 1, 1,15,30038.9527062944, 1,18,15
137,25173284.6835582,3610.62603034397, 1, 1,15,18053.1301517199, 1,18,15
138,755217178.898933,0.0, 1, 1,15,1452903.49970129, 5,16,45
139,0.0,0.0, 1, 1,15,0.0, 1, 1,15
140,34.3729706834376,23.785073238052,30, 6,60,48.7929180099489,25,18,45
141,33.8425103778619,26.3468146507114,30,10,45,41.6872967584128,25,24,15
142,33.8620687027543,23.5061054962056,30, 6,60,48.911208702411,25,18,45
143,34.1175196930959,23.6455893671288,30, 6,60,48.8520633561799,25,18,45
144,33.4975452604076,26.2066597931416,30, 9,45,41.4762125075184,25,22,60
145,33.6700278191348,26.2804130303945,30,11,30,41.5482354419931,25,22,60
146,173333300.356806,8693.4268617555,31,14,50,101183.693209465, 8, 1,60
147,0.0,0.0, 1, 1,15,0.0, 1, 1,15
148,0.369243755010458,0.355630616163551,30,13,30,0.378764600286305,17,21,52
149,103147233.997785,2394.58128591155,31,15,50,62009.6791176427,17, 5,60
150,0.0,0.0, 1, 1,15,0.0, 1, 1,15
151,0.368836211609381,0.352934180052924,30,15,60,0.37956849633205, 6, 6,60
224,33.8620687027543,23.5061054962056,30, 6,60,48.911208702411,25,18,45
225,30.1478970235147,9.24983965983026, 8,17,52,59.2046872426991,29, 4,30
258,33.4975452604076,26.2066597931416,30, 9,45,41.4762125075184,25,22,60
259,29.7036718923474,14.9420481630633, 8,17, 5,51.8750217714674,28,15,30
260,0.0,0.0, 1, 1,15,0.0, 1, 1,15
291,0.0,0.0, 1, 1,15,0.0, 1, 1,15
322,0.0,0.0, 1, 1,15,0.0, 1, 1,15
323,0.0,0.0, 1, 1,15,0.0, 1, 1,15
324,0.0,0.0, 1, 1,15,0.0, 1, 1,15
325,0.0,0.0, 1, 1,15,0.0, 1, 1,15
408,103312071.498657,0.0, 1, 1,15,166632.37338493, 1, 6,15
461,62089590.5141934,0.0, 1, 1,15,100144.500829344, 1, 6,15
4,181, 6
8,49769377.934464,7056.14999070856, 1, 8,15,23520.4999690285, 1, 1,15
9,29910931.5230134,4240.680272639, 1, 8,15,14135.6009087967, 1, 1,15
71,33517463.4296833,0.0, 1, 1,15,42054.5337888122, 1,19,15
93,20143682.6232891,0.0, 1, 1,15,25274.3822124078, 1,19,15
125,40516539.4102501,6007.79054125889, 1, 1,15,30038.9527062944, 1,18,15
137,24350061.9486398,3610.62603034397, 1, 1,15,18053.1301517199, 1,18,15
138,729279497.67305,0.0, 1, 1,15,1394105.47113731, 1,16,60
139,0.0,0.0, 1, 1,15,0.0, 1, 1,15
140,39.4327293375883,30.5931422960205,15, 7,15,51.8842195709127, 9,19,15
141,38.7796794267191,32.548968306475,15,11,30,44.749354989146,10,22,60
142,38.9202826714983,30.2514565112242,15, 6,60,51.8848283753543, 9,18,60
143,39.1765060045433,30.4234824166,15, 6,60,51.8844200844352, 9,18,60
144,38.4288903910893,32.3674911626096,15,11,30,44.4814021853582,10,20,60
145,38.6042849089041,32.4582297345423,15,11,30,44.5972944795786,10,22,60
146,170789942.19279,8545.63156781676, 1,15,50,83783.6498516868, 1, 4,30
147,0.0,0.0, 1, 1,15,0.0, 1, 1,15
148,0.368716409485115,0.357261830901016,15,13,30,0.378242506617031,22,19,52
149,100818005.221215,2332.97431892111, 1,15,50,52727.8025133773, 1, 4,60
150,0.0,0.0, 1, 1,15,0.0, 1, 1,15
151,0.368158586116917,0.35518483027173,15,15,60,0.379026038071911,12, 3,37
224,38.9202826714983,30.2514565112242,15, 6,60,51.8848283753543, 9,18,60
225,31.6927721825083,10.1275052864727, 8,17,52,59.8875301379979,15, 6,60
258,38.4288903910893,32.3674911626096,15,11,30,44.4888901668863,10,20,60
259,31.6759527020349,15.4152882251162, 8,17, 5,53.7066900032982,14, 5,60
260,0.0,0.0, 1, 1,15,0.0, 1, 1,15
291,0.0,0.0, 1, 1,15,0.0, 1, 1,15
322,0.0,0.0, 1, 1,15,0.0, 1, 1,15
323,0.0,0.0, 1, 1,15,0.0, 1, 1,15
324,0.0,0.0, 1, 1,15,0.0, 1, 1,15
325,0.0,0.0, 1, 1,15,0.0, 1, 1,15
408,99979424.0309581,0.0, 1, 1,15,166632.37338493, 1, 6,15
461,60086700.4976065,0.0, 1, 1,15,100144.500829344, 1, 6,15
4,212, 7
8,51754508.13185,7056.14999070856, 1,15,15,23520.4999690285, 1, 1,15
9,31103976.2397158,4240.680272639, 1,15,15,14135.6009087967, 1, 1,15
71,34379581.3723539,0.0, 1, 1,15,42054.5337888122, 1,19,15
93,20661807.4586434,0.0, 1, 1,15,25274.3822124078, 1,19,15
125,41742128.680667,6007.79054125889, 1, 1,15,30038.9527062944, 1,19,15
137,25086629.6588299,3610.62603034397, 1, 1,15,18053.1301517199, 1,19,15
138,605215855.308332,0.0, 1, 1,15,1242390.56052427, 6,16,45
139,0.0,0.0, 1, 1,15,0.0, 1, 1,15
140,27.5125091666489,24.2737562891857,18, 2,15,37.1137299354997, 1,14,15
141,26.1166903680757,24.5674644170307,17,22,15,37.1675583331601, 1, 1,15
142,26.0410632671743,23.9344885439901, 3,14,15,36.5280102085502, 1,13,60
143,26.7767862169116,24.1788230557516,17,21,60,36.6698018441342, 1,13,60
144,25.613648147979,23.9572479714217, 3,14,15,36.6778108205156, 1, 1,15
145,25.8651692580273,24.2875480009682,17,21,60,36.9226845768379, 1, 1,15
146,28230911.0324532,0.0, 1,14, 2,55903.3442707079, 1, 1,15
147,22975607.743865,0.0, 1, 1,15,51231.6271123332,30,14,30
148,0.350849134954954,0.341475499071147,20,15,60,0.364869295863009, 1, 1,15
149,14917522.4180944,0.0, 1,14, 2,36817.2072108671, 1, 3,60
150,13647143.7465124,0.0, 1, 1,15,29832.6753187322,30,14,45
151,0.350349132427132,0.341466847646395,20,15,60,0.366809826820494, 1, 1,15
224,26.0410632671743,23.4155623741506, 2,14, 4,36.5280102085502, 1,13,60
225,71.1941036512793,43.7684625977473, 1,13,60,90.1785356670065, 3, 5,60
258,25.613648147979,23.448489640594, 1,14, 3,36.6778108205156, 1, 1,15
259,73.0364066682046,43.905201480978, 1, 1,15,89.6458873896681, 2,14, 3
260,0.0,0.0, 1, 1,15,0.0, 1, 1,15
291,605758250.495357,0.0, 1, 1,15,1775648.62033544, 1,14,45
322,5.855766005424812E-006,0.0, 1, 1,15,1.592070475453511E-007, 1,14,60
323,0.0,0.0, 1, 1,15,0.0, 1, 1,15
324,159847564.599859,0.0, 1, 1,15,1071474.30398013, 1,14,45
325,1.106227909275503E-006,0.0, 1, 1,15,4.266667019692250E-008, 1,15,30
408,103312071.498657,0.0, 1, 1,15,166632.37338493, 1, 6,15
461,62089590.5141934,0.0, 1, 1,15,100144.500829344, 1, 6,15
4,243, 8
8,51378180.1323455,7056.14999070856, 1, 8,15,23520.4999690285, 1, 1,15
9,30877806.6251751,4240.680272639, 1, 8,15,14135.6009087967, 1, 1,15
71,34673963.1088756,0.0, 1, 1,15,42054.5337888122, 1,19,15
93,20838728.1341303,0.0, 1, 1,15,25274.3822124078, 1,19,15
125,41886315.6536572,6007.79054125889, 1, 1,15,30038.9527062944, 1,18,15
137,25173284.6835582,3610.62603034397, 1, 1,15,18053.1301517199, 1,18,15
138,708013613.037883,0.0, 1, 1,15,1456523.417457,30,16,30
139,0.0,0.0, 1, 1,15,0.0, 1, 1,15
140,27.7256592016747,23.2340945866554,26, 6,60,32.3635202685043,30,17,30
141,26.0199385797039,24.4564456344827,26, 8,15,28.004835817663, 7,14,15
142,26.053741013699,23.0325865901236,26, 6,60,31.7998794318938, 7,13,60
143,26.8897001076869,23.1333405883895,26, 6,60,31.7803593767618, 7,13,60
144,25.5034737979361,23.942461880895,25,14,15,28.2336239704342, 7,13,60
145,25.76170618882,24.39047820957,25,21,60,28.0817784102237, 7,13,60
146,28407524.1722121,0.0, 1,14, 1,33373.9207865811,28, 6,60
147,24518201.1442161,0.0, 1, 1,15,52636.5678057672, 7,15,60
148,0.350295357266083,0.339059751364994, 7,15,60,0.357814055359704,28, 6,60
149,14518854.1122,0.0, 1,13,30,21146.011192662,28, 6,60
150,14716753.8014215,0.0, 1, 1,15,30979.1568624192, 7,15,60
151,0.349654071584103,0.339046487324031, 7,15,60,0.358632082377103,28, 6,60
224,26.053741013699,23.0325865901236,26, 6,60,31.9037335754817, 7,13,60
225,69.8667910664541,44.5108204779792,30,13,60,90.5245796995745, 2, 5,60
258,25.5034737979361,23.55231506241, 9,14, 3,28.2582842072206, 7,13,60
259,72.1491299642969,53.9069895095544,30,13,60,91.8000906715818, 2, 5,60
260,0.0,0.0, 1, 1,15,0.0, 1, 1,15
291,695516596.866317,0.0, 1, 1,15,1220076.83992444,30,17,30
322,8.724890342804613E-006,0.0, 1, 1,15,1.473381416872144E-007,29,18,45
323,0.0,0.0, 1, 1,15,0.0, 1, 1,15
324,162380925.909734,0.0, 1, 1,15,319641.178619926, 7,14, 1
325,1.191012837781796E-006,0.0, 1, 1,15,3.376499080331996E-008,13,14,45
408,103312071.498657,0.0, 1, 1,15,166632.37338493, 1, 6,15
461,62089590.5141934,0.0, 1, 1,15,100144.500829344, 1, 6,15
4,273, 9
8,49957541.9342163,7056.14999070856, 1, 8,15,23520.4999690285, 1, 1,15
9,30024016.3302838,4240.680272639, 1, 8,15,14135.6009087967, 1, 1,15
71,33370272.5614225,0.0, 1, 1,15,42054.5337888122, 1,19,15
93,20055222.2855456,0.0, 1, 1,15,25274.3822124078, 1,19,15
125,40444445.923755,6007.79054125889, 1, 1,15,30038.9527062944, 1,18,15
137,24306734.4362756,3610.62603034397, 1, 1,15,18053.1301517199, 1,18,15
138,672246918.858769,0.0, 1, 1,15,1605867.73009193,22,16,30
139,0.0,0.0, 1, 1,15,0.0, 1, 1,15
140,26.5175820975004,22.5195670230921,30, 7,30,32.4115351373525, 6,17,30
141,25.4029461112617,23.9864031955277,30, 8,60,26.7709589049921, 1,14,15
142,24.9674702993576,22.2711227762181,30, 7,30,30.2937439453289, 7,13,60
143,25.742526198429,22.3953448996551,30, 7,30,30.2860464695518, 7,13,60
144,24.9543603520126,23.8798653123164,30, 7,60,26.9514566338396, 7,13,60
145,25.1786532316371,23.9473277108319,30, 7,60,26.8245373600523, 7,13,60
146,49099204.0251735,0.0, 1,14, 1,49953.0037630233,15,24,60
147,2837304.14867817,0.0, 1, 1,15,25577.4461405449,20,18,60
148,0.353921761725433,0.342503833499118, 6,15,60,0.362143029106937,30,24,60
149,29200804.020961,0.0, 1,14, 1,29798.5971978822,15,24,60
150,1629804.88477214,0.0, 1, 1,15,16775.8479655858,20,18,60
151,0.353912915710168,0.342510753169144, 6,15,60,0.36292670134963,30,24,60
224,24.9674702993576,22.2711227762181,30, 7,30,30.401315372897, 7,13,60
225,61.4668018634407,32.4234000031508,16,13,60,84.6666912278032, 9, 6,60
258,24.9543603520126,23.5700981445915, 7,14, 3,26.9652156487548, 7,13,60
259,61.3045870440499,36.9044216150844,16,22,30,82.983615665205, 9, 6,60
260,0.0,0.0, 1, 1,15,0.0, 1, 1,15
291,551062310.830231,0.0, 1, 1,15,1235511.73596391, 6,17,30
322,1.135193455481720E-005,0.0, 1, 1,15,1.231910573551431E-007, 8,16,60
323,0.0,0.0, 1, 1,15,0.0, 1, 1,15
324,101943605.938473,0.0, 1, 1,15,211071.36034788, 7,14,45
325,1.893927409826890E-006,0.0, 1, 1,15,1.675459770922316E-008,15,15,60
408,99979424.0309581,0.0, 1, 1,15,166632.37338493, 1, 6,15
461,60086700.4976065,0.0, 1, 1,15,100144.500829344, 1, 6,15
4,304,10
8,51566344.1320978,7056.14999070856, 1,15,15,23520.4999690285, 1, 1,15
9,30990891.4324454,4240.680272639, 1,15,15,14135.6009087967, 1, 1,15
71,34526772.2406148,0.0, 1, 1,15,42054.5337888122, 1,19,15
93,20750267.7963869,0.0, 1, 1,15,25274.3822124078, 1,19,15
125,41814222.1671621,6007.79054125889, 1, 1,15,30038.9527062944, 1,19,15
137,25129957.171194,3610.62603034397, 1, 1,15,18053.1301517199, 1,19,15
138,656368837.59349,0.0, 1, 1,15,1543036.82865681,15,15,60
139,0.0,0.0, 1, 1,15,0.0, 1, 1,15
140,30.8184627158273,20.9978824681446,24, 7,30,43.5382189430059, 9,17,60
141,30.4303153614123,23.9867649823859, 1, 9,15,36.5854854763923, 9,23,15
142,30.3686934018368,20.4517544016527,24, 7,30,43.4192613429282, 9,17,45
143,30.5935780588321,20.7248184348987,24, 7,30,43.4614242989375, 9,17,45
144,30.1269090743807,23.791744917793, 1, 7,60,36.2964308291136, 9,21,60
145,30.2786122178965,23.9210056214068, 1, 7,60,36.4184020598793, 9,22,60
146,162090307.402254,8340.8940060598, 1,13,50,98964.05612372,15,24,60
147,0.0,0.0, 1, 1,15,0.0, 1, 1,15
148,0.36823868070778,0.35623140394198, 2,12,60,0.38203997506451,18,17,52
149,96573987.7741951,3996.18889901698, 2,16, 5,60172.1551869482,15,24,60
150,0.0,0.0, 1, 1,15,0.0, 1, 1,15
151,0.367973302053487,0.355480031265947, 2,14,60,0.380433567605806,19, 3,22
224,30.3686934018368,20.4517544016527,24, 7,30,43.4192613429282, 9,17,45
225,31.6912385380218,8.67281826009566,16,17, 7,60.1526950649352,28,24,30
258,30.1269090743807,23.791744917793, 1, 7,60,36.2964308291136, 9,21,60
259,31.3243552747335,13.7173007772264,19,16,37,52.7704849732935,28,24,30
260,0.0,0.0, 1, 1,15,0.0, 1, 1,15
291,0.0,0.0, 1, 1,15,0.0, 1, 1,15
322,0.0,0.0, 1, 1,15,0.0, 1, 1,15
323,0.0,0.0, 1, 1,15,0.0, 1, 1,15
324,0.0,0.0, 1, 1,15,0.0, 1, 1,15
325,0.0,0.0, 1, 1,15,0.0, 1, 1,15
408,103312071.498657,0.0, 1, 1,15,166632.37338493, 1, 6,15
461,62089590.5141934,0.0, 1, 1,15,100144.500829344, 1, 6,15
4,334,11
8,49769377.934464,7056.14999070856, 1, 9,15,23520.4999690285, 1, 1,15
9,29910931.5230134,4240.680272639, 1, 9,15,14135.6009087967, 1, 1,15
71,33517463.4296833,0.0, 1, 1,15,42054.5337888122, 1,20,15
93,20143682.6232891,0.0, 1, 1,15,25274.3822124078, 1,20,15
125,40516539.4102501,6007.79054125889, 1, 1,15,30038.9527062944, 1,19,15
137,24350061.9486398,3610.62603034397, 1, 1,15,18053.1301517199, 1,19,15
138,519751326.304594,0.0, 1, 1,15,1356851.23108909, 6,15,30
139,0.0,0.0, 1, 1,15,0.0, 1, 1,15
140,23.4235325244084,17.6025914107228,27, 8,15,35.6289331755503, 6,17,15
141,23.5175750917057,19.7820023676915,27,10,45,29.5235196772967, 6,23,60
142,23.3380367312628,19.9999999999998,10, 8,30,35.7364154850716, 6,16,60
143,23.3807846278356,18.8012957053614,27, 8,15,35.6807584361645, 6,17,15
144,23.2454248796844,20.,27, 5,45,29.486819802309, 7,22,60
145,23.381499985695,19.8910011838458,27,10,45,29.4551200036942, 7,22,60
146,149584600.796894,8275.65252255724, 7,13,50,80815.3196811425,30,24,60
147,0.0,0.0, 1, 1,15,0.0, 1, 1,15
148,0.369399316784802,0.357818752550239,14,12,60,0.382016027932396,22,17,52
149,89600692.3974093,3432.7699338309,13,14,50,49996.889265723,23, 7,60
150,0.0,0.0, 1, 1,15,0.0, 1, 1,15
151,0.369303793026533,0.357214932518398, 5,15,60,0.381953765810949,23, 7,60
224,23.3380367312628,19.9999999999998,10, 8,30,35.7364154850716, 6,16,60
225,31.7626692421763,11.6305703799118,27,16,60,60.4215883509589,19, 8,60
258,23.2454248796844,20.,27, 5,45,29.486819802309, 7,22,60
259,31.4321686588881,15.3148388987478,23,13,15,55.5516628450537,19,12,45
260,89571337.0323468,0.0, 1, 1,15,283328.672837966,27, 6,60
291,0.0,0.0, 1, 1,15,0.0, 1, 1,15
322,89571337.0323489,0.0, 1, 1,15,283328.672837976,27, 6,60
323,3719110.11240226,0.0, 1, 1,15,32416.0925920951,24, 6,60
324,0.0,0.0, 1, 1,15,0.0, 1, 1,15
325,3719114.29843583,0.0, 1, 1,15,32416.0925920972,24, 6,60
408,99979424.0309581,0.0, 1, 1,15,166632.37338493, 1, 7,15
461,60086700.4976065,0.0, 1, 1,15,100144.500829344, 1, 7,15
4,365,12
8,51754508.13185,7056.14999070856, 1, 9,15,23520.4999690285, 1, 1,15
9,31103976.2397158,4240.680272639, 1, 9,15,14135.6009087967, 1, 1,15
71,34379581.3723539,0.0, 1, 1,15,42054.5337888122, 1,20,15
93,20661807.4586434,0.0, 1, 1,15,25274.3822124078, 1,20,15
125,41742128.680667,6007.79054125889, 1, 1,15,30038.9527062944, 1,19,15
137,25086629.6588299,3610.62603034397, 1, 1,15,18053.1301517199, 1,19,15
138,551234928.756261,0.0, 1, 1,15,1387809.87989664,31,15,60
139,0.0,0.0, 1, 1,15,0.0, 1, 1,15
140,20.6029004737298,17.2138884792257,31, 6,60,27.7369383162223,27,17,15
141,20.693792779794,19.5351462007461,31, 8,60,22.6901255194948,29,23,60
142,21.0972080510584,19.9999999999998,16, 8,15,27.686823165975,27,16,60
143,20.8500542623941,18.6069442396129,31, 6,60,27.6925913043237,27,17,15
144,20.4146363274757,19.9999999999999,15,12,30,22.5581078832716,29,22,60
145,20.5542145536349,19.7675731003731,31, 8,60,22.5939974084481,29,22,60
146,208584554.483164,12992.1409489308,29,14,50,112059.384787307,31,16,60
147,0.0,0.0, 1, 1,15,0.0, 1, 1,15
148,0.377725264021015,0.363770321283693,29,13,30,0.396334672944446,31,17,15
149,121122154.362317,6763.34361516276,29,15,60,66779.4626859023,31, 9,60
150,0.0,0.0, 1, 1,15,0.0, 1, 1,15
151,0.376862618963898,0.362303987942868,29,15,60,0.394496246328397,31,24,60
224,21.0972080510584,19.9999999999998,16, 8,15,27.686823165975,27,16,60
225,19.7886854661409,5.92326775013961,15,16,60,40.3504666266946,25, 4,30
258,20.4146363274757,19.9999999999999,15,12,30,22.5581078832716,29,22,60
259,20.0069560622509,7.36307995832756,16,19,60,40.9217849284028,25, 4,15
260,290864763.893254,0.0, 1,13,45,375813.749371299,31, 6,60
291,0.0,0.0, 1, 1,15,0.0, 1, 1,15
322,290864763.89326,0.0, 1,13,45,375813.749371299,31, 6,60
323,32429644.2591128,0.0, 1,16, 7,63810.3166141026,31, 6,60
324,0.0,0.0, 1, 1,15,0.0, 1, 1,15
325,32429648.1198722,0.0, 1,16, 7,63810.3166141048,31, 6,60
408,103312071.498657,0.0, 1, 1,15,166632.37338493, 1, 7,15
461,62089590.5141934,0.0, 1, 1,15,100144.500829344, 1, 7,15
End of Data
 Number of Records Written=         384
