Program Version,EnergyPlus, Version 8.4.0-09f5359d8a, YMD=2023.08.02 14:39
1,5,Environment Title[],Latitude[deg],Longitude[deg],Time Zone[],Elevation[m]
2,6,Day of Simulation[],Month[],Day of Month[],DST Indicator[1=yes 0=no],Hour[],StartMinute[],EndMinute[],DayType
3,3,Cumulative Day of Simulation[],Month[],Day of Month[],DST Indicator[1=yes 0=no],DayType  ! When Daily Report Variables Requested
4,2,Cumulative Days of Simulation[],Month[]  ! When Monthly Report Variables Requested
5,1,Cumulative Days of Simulation[] ! When Run Period Report Variables Requested
8,9,PERIM,Zone People Total Heating Energy [J] !Monthly  [Value,Min,Day,Hour,Minute,Max,Day,Hour,Minute]
9,9,CORE,Zone People Total Heating Energy [J] !Monthly  [Value,Min,Day,Hour,Minute,Max,Day,Hour,Minute]
71,9,PERIM,Zone Lights Electric Energy [J] !Monthly  [Value,Min,Day,Hour,Minute,Max,Day,Hour,Minute]
93,9,CORE,Zone Lights Electric Energy [J] !Monthly  [Value,Min,Day,Hour,Minute,Max,Day,Hour,Minute]
125,9,PERIM,Zone Electric Equipment Electric Energy [J] !Monthly  [Value,Min,Day,Hour,Minute,Max,Day,Hour,Minute]
137,9,CORE,Zone Electric Equipment Electric Energy [J] !Monthly  [Value,Min,Day,Hour,Minute,Max,Day,Hour,Minute]
138,9,PERIM,Zone Windows Total Transmitted Solar Radiation Energy [J] !Monthly  [Value,Min,Day,Hour,Minute,Max,Day,Hour,Minute]
139,9,CORE,Zone Windows Total Transmitted Solar Radiation Energy [J] !Monthly  [Value,Min,Day,Hour,Minute,Max,Day,Hour,Minute]
140,9,PERIM,Zone Mean Radiant Temperature [C] !Monthly [Value,Min,Day,Hour,Minute,Max,Day,Hour,Minute]
141,9,CORE,Zone Mean Radiant Temperature [C] !Monthly [Value,Min,Day,Hour,Minute,Max,Day,Hour,Minute]
142,9,PERIM,Zone Mean Air Temperature [C] !Monthly [Value,Min,Day,Hour,Minute,Max,Day,Hour,Minute]
143,9,PERIM,Zone Operative Temperature [C] !Monthly [Value,Min,Day,Hour,Minute,Max,Day,Hour,Minute]
144,9,CORE,Zone Mean Air Temperature [C] !Monthly [Value,Min,Day,Hour,Minute,Max,Day,Hour,Minute]
145,9,CORE,Zone Operative Temperature [C] !Monthly [Value,Min,Day,Hour,Minute,Max,Day,Hour,Minute]
146,9,PERIM,Zone Infiltration Total Heat Loss Energy [J] !Monthly  [Value,Min,Day,Hour,Minute,Max,Day,Hour,Minute]
147,9,PERIM,Zone Infiltration Total Heat Gain Energy [J] !Monthly  [Value,Min,Day,Hour,Minute,Max,Day,Hour,Minute]
148,9,PERIM,Zone Infiltration Air Change Rate [ach] !Monthly [Value,Min,Day,Hour,Minute,Max,Day,Hour,Minute]
149,9,CORE,Zone Infiltration Total Heat Loss Energy [J] !Monthly  [Value,Min,Day,Hour,Minute,Max,Day,Hour,Minute]
150,9,CORE,Zone Infiltration Total Heat Gain Energy [J] !Monthly  [Value,Min,Day,Hour,Minute,Max,Day,Hour,Minute]
151,9,CORE,Zone Infiltration Air Change Rate [ach] !Monthly [Value,Min,Day,Hour,Minute,Max,Day,Hour,Minute]
224,9,PERIM,Zone Air Temperature [C] !Monthly [Value,Min,Day,Hour,Minute,Max,Day,Hour,Minute]
225,9,PERIM,Zone Air Relative Humidity [%] !Monthly [Value,Min,Day,Hour,Minute,Max,Day,Hour,Minute]
258,9,CORE,Zone Air Temperature [C] !Monthly [Value,Min,Day,Hour,Minute,Max,Day,Hour,Minute]
259,9,CORE,Zone Air Relative Humidity [%] !Monthly [Value,Min,Day,Hour,Minute,Max,Day,Hour,Minute]
260,9,PERIM IDEAL LOADS AIR,Zone Ideal Loads Supply Air Total Heating Energy [J] !Monthly  [Value,Min,Day,Hour,Minute,Max,Day,Hour,Minute]
291,9,PERIM IDEAL LOADS AIR,Zone Ideal Loads Supply Air Total Cooling Energy [J] !Monthly  [Value,Min,Day,Hour,Minute,Max,Day,Hour,Minute]
322,9,PERIM IDEAL LOADS AIR,Zone Ideal Loads Zone Total Heating Energy [J] !Monthly  [Value,Min,Day,Hour,Minute,Max,Day,Hour,Minute]
323,9,CORE IDEAL LOADS AIR,Zone Ideal Loads Supply Air Total Heating Energy [J] !Monthly  [Value,Min,Day,Hour,Minute,Max,Day,Hour,Minute]
324,9,CORE IDEAL LOADS AIR,Zone Ideal Loads Supply Air Total Cooling Energy [J] !Monthly  [Value,Min,Day,Hour,Minute,Max,Day,Hour,Minute]
325,9,CORE IDEAL LOADS AIR,Zone Ideal Loads Zone Total Heating Energy [J] !Monthly  [Value,Min,Day,Hour,Minute,Max,Day,Hour,Minute]
408,9,DHW PERIM,Water Use Equipment Heating Energy [J] !Monthly  [Value,Min,Day,Hour,Minute,Max,Day,Hour,Minute]
461,9,DHW CORE,Water Use Equipment Heating Energy [J] !Monthly  [Value,Min,Day,Hour,Minute,Max,Day,Hour,Minute]
End of Data Dictionary
1,ARCHSIM,  37.57, 126.97,   9.00,  87.10
4,31, 1
8,51566344.1105076,7056.14998775423, 1,16,15,23520.4999591808, 1, 1,15
9,30990891.427655,4240.68027198349, 1,16,15,14135.6009066116, 1, 1,15
71,34526772.226159,0.0, 1, 1,15,42054.5337712045, 1,20,15
93,20750267.7931793,0.0, 1, 1,15,25274.382208501, 1,20,15
125,41814222.1496547,6007.79053874349, 1, 1,15,30038.9526937175, 1,20,15
137,25129957.1673094,3610.62602978586, 1, 1,15,18053.1301489293, 1,20,15
138,413629450.585841,0.0, 1, 1,15,811568.511620369,30,12,60
139,0.0,0.0, 1, 1,15,0.0, 1, 1,15
140,19.5333599995691,17.2613930528063,14, 8,45,24.4595924958325, 4,16,15
141,20.1348044622042,19.475089596272,22, 8,60,21.3884709074865, 4,22,60
142,20.3601234088534,19.9999999999998,25, 6,45,24.1592692468274, 4,15,60
143,19.9467417042112,18.6306965264031,14, 8,45,24.3025020751287, 4,15,60
144,20.0758494342167,19.9999999999999,21, 4,30,21.3244569507418, 4,20,60
145,20.1053269482104,19.737544798136,22, 8,60,21.3226117244814, 4,20,60
146,216686930.606102,18064.8668959166, 8,12,52,109516.343250097,23, 6,60
147,0.0,0.0, 1, 1,15,0.0, 1, 1,15
148,0.379189247305125,0.364453355735652, 8,12,22,0.394138831418317,23, 6,60
149,128632779.574453,9702.66836949171, 8,12,52,65912.3174082964,23, 6,60
150,0.0,0.0, 1, 1,15,0.0, 1, 1,15
151,0.378828569217781,0.36188106985605, 6,15,60,0.394136904895118,23, 6,60
224,20.3601234088534,19.9999999999998,25, 6,45,24.1592692468274, 4,15,60
225,17.4002514523418,6.25711634918989,14,19,60,35.4362825299497, 2,22,30
258,20.0758494342167,19.9999999999999,21, 4,30,21.3244569507418, 4,20,60
259,17.5938241302726,6.11759591084805,14,19,60,34.4134105414802, 2,22,45
260,389293065.53143,0.0, 1,12,45,367446.371143563,23, 6,60
291,0.0,0.0, 1, 1,15,0.0, 1, 1,15
322,389293065.531438,0.0, 1,12,45,367446.371143563,23, 6,60
323,68567166.6186774,0.0, 1,20,15,66788.9307156678,23, 6,60
324,0.0,0.0, 1, 1,15,0.0, 1, 1,15
325,68567167.2016266,0.0, 1,20,15,66788.9307156687,23, 6,60
408,103312071.455401,0.0, 1, 1,15,166632.373315164, 1, 7,15
461,62089590.5045958,0.0, 1, 1,15,100144.500813864, 1, 7,15
4,59, 2
8,46551773.5192104,7056.14998775423, 1, 9,15,23520.4999591808, 1, 1,15
9,27977181.3143655,4240.68027198349, 1, 9,15,14135.6009066116, 1, 1,15
71,31204464.0582338,0.0, 1, 1,15,42054.5337712045, 1,20,15
93,18753591.5987078,0.0, 1, 1,15,25274.382208501, 1,20,15
125,37776986.9076191,6007.79053874349, 1, 1,15,30038.9526937175, 1,19,15
137,22703616.4752934,3610.62602978586, 1, 1,15,18053.1301489293, 1,19,15
138,426508707.077239,0.0, 1, 1,15,818928.032645079, 9,12,60
139,0.0,0.0, 1, 1,15,0.0, 1, 1,15
140,20.4921607248258,17.4899106429939, 4, 7,30,26.864281398976,28,15,60
141,20.6928450573678,19.5498547413824, 4, 8,45,23.4914330236701,28,23,15
142,20.9209920291071,19.9999999999998, 1, 2,30,26.5962009418331,24,16,15
143,20.7065763769665,18.7449553214969, 4, 7,30,26.7110112008797,28,15,60
144,20.5175199711078,19.9999999999999,11, 2,15,23.4029097869145,28,20,60
145,20.6051825142378,19.7749273706912, 4, 8,45,23.4042790644272,28,22,60
146,176519557.472786,14253.7749419822, 6,12,50,100646.850484284, 8, 6,60
147,0.0,0.0, 1, 1,15,0.0, 1, 1,15
148,0.376051435320838,0.364492968007728,23,12,52,0.390387849927628, 8, 6,60
149,104078380.57091,7540.08368321295, 6,12,50,60460.1719096149, 8, 6,60
150,0.0,0.0, 1, 1,15,0.0, 1, 1,15
151,0.375549261517525,0.359650483164978,23,15,60,0.390388433278137, 8, 6,60
224,20.9209920291071,19.9999999999998, 1, 2,30,26.5962009418331,24,16,15
225,17.9121759265008,5.62776049801228, 9,16,30,37.9575457346452, 3,22,15
258,20.5175199711078,19.9999999999999,11, 2,15,23.4029097869145,28,20,60
259,18.0773796403876,6.04887698640188, 9,17,60,38.3720954313334, 3,21,60
260,236502679.231173,0.0, 1,12,45,315002.073093129, 8, 6,60
291,0.0,0.0, 1, 1,15,0.0, 1, 1,15
322,236502679.231178,0.0, 1,12,45,315002.073093131, 8, 6,60
323,36747540.5366376,0.0, 1,19,15,55261.7092020785,11, 8,45
324,0.0,0.0, 1, 1,15,0.0, 1, 1,15
325,36747540.8004052,0.0, 1,19,15,55261.709202082,11, 8,45
408,93314129.0564914,0.0, 1, 1,15,166632.373315164, 1, 7,15
461,56080920.4557639,0.0, 1, 1,15,100144.500813864, 1, 7,15
4,90, 3
8,51378180.1108341,7056.14998775423, 1, 9,15,23520.4999591808, 1, 1,15
9,30877806.6204021,4240.68027198349, 1, 9,15,14135.6009066116, 1, 1,15
71,34673963.0943582,0.0, 1, 1,15,42054.5337712045, 1,20,15
93,20838728.1309091,0.0, 1, 1,15,25274.382208501, 1,20,15
125,41886315.6361196,6007.79053874349, 1, 1,15,30038.9526937175, 1,19,15
137,25173284.6796668,3610.62602978586, 1, 1,15,18053.1301489293, 1,19,15
138,511461924.603577,0.0, 1, 1,15,868654.414668805,14,10,30
139,0.0,0.0, 1, 1,15,0.0, 1, 1,15
140,22.3962005605183,18.0090741513805, 8, 7,45,29.3062786174965,19,16,15
141,22.3155331915806,19.8971557233098, 9, 8,30,25.6938285445432,19,23,60
142,22.2268493219039,19.9999999999998, 8, 1,30,29.2145303731754,19,15,60
143,22.3115249412111,19.0045370756902, 8, 7,45,29.2496693428986,19,15,60
144,22.0075616884122,20., 8, 7,45,25.701784843816,19,23,30
145,22.1615474399964,19.9485778616549, 9, 8,30,25.6943123839322,19,23,60
146,158236529.857846,15434.9151072073,18,10,20,82614.9423234157, 8, 6,60
147,0.0,0.0, 1, 1,15,0.0, 1, 1,15
148,0.37042723765737,0.362119122975247,30,15,60,0.383394730134213, 8, 6,60
149,94275310.7640371,7726.89852540769,30,13, 7,49825.35183079, 8, 6,60
150,0.0,0.0, 1, 1,15,0.0, 1, 1,15
151,0.370170049592822,0.357286061482056,19,15,60,0.38339111599638, 8, 6,60
224,22.2268493219039,19.9999999999998, 8, 1,30,29.2145303731754,19,15,60
225,21.8081646291122,7.36136173982469, 7,15,60,38.9791643624684,31,22,15
258,22.0075616884122,20., 8, 7,45,25.701784843816,19,23,30
259,21.8520823947622,8.15650571325252, 7,17,60,35.6690822149302,31,19,15
260,73897705.509821,0.0, 1, 1,15,248682.028252003, 8, 6,60
291,0.0,0.0, 1, 1,15,0.0, 1, 1,15
322,73897705.5098226,0.0, 1, 1,15,248682.028252009, 8, 6,60
323,3073819.44722682,0.0, 1, 1,15,33896.2793425658, 9, 6,60
324,0.0,0.0, 1, 1,15,0.0, 1, 1,15
325,3073819.82999431,0.0, 1, 1,15,33896.2793425672, 9, 6,60
408,103312071.455401,0.0, 1, 1,15,166632.373315164, 1, 7,15
461,62089590.5045958,0.0, 1, 1,15,100144.500813864, 1, 7,15
4,120, 4
8,50145705.9129731,7056.14998775423, 1,15,15,23520.4999591808, 1, 1,15
9,30137101.1328957,4240.68027198349, 1,15,15,14135.6009066116, 1, 1,15
71,33223081.6792517,0.0, 1, 1,15,42054.5337712045, 1,19,15
93,19966761.9447158,0.0, 1, 1,15,25274.382208501, 1,19,15
125,40372352.4203563,6007.79053874349, 1, 1,15,30038.9526937175, 1,19,15
137,24263406.9201608,3610.62602978586, 1, 1,15,18053.1301489293, 1,19,15
138,372581258.858238,0.0, 1, 1,15,771324.818389082, 2,10,45
139,0.0,0.0, 1, 1,15,0.0, 1, 1,15
140,24.0994255840712,18.4349264744084,26, 6,45,33.0949891130006,10,15,60
141,24.1857170306202,20.1267468152713,26, 9,45,30.6086470182543,11,22,60
142,23.9276014307059,19.9999999999999,25,24,60,32.8542951819314,10,15,60
143,24.0135135073886,19.2174632372042,26, 6,45,32.974642147466,10,15,60
144,24.0279412310694,20.,26,10,45,30.6985924925471,11,21,60
145,24.1068291308448,20.0633734076356,26, 9,45,30.6287725464854,11,21,60
146,115923450.324138,0.0,19,19,60,73190.5709577897,11,22,60
147,5190.25230337019,0.0, 1, 1,15,5190.25230337019,19,19,60
148,0.3642157465844,0.353004735116589,19,12,60,0.372495594054614, 1, 4,60
149,70608706.3504724,0.0,19,19,45,44079.7735489646,11,22,60
150,15091.0013215636,0.0, 1, 1,15,6763.15377588427,19,19,60
151,0.364358044253465,0.350254209779386,19,12,60,0.374421437936063, 1, 2,60
224,23.9276014307059,19.9999999999999,25,24,60,32.8542951819314,10,15,60
225,32.6196182403655,13.7078157803246,11,16,60,62.6496994745666,20,23,45
258,24.0279412310694,20.,26,10,45,30.6985924925471,11,21,60
259,31.9935563194592,15.511877593624,11,17,15,55.3957708188569,25, 1,60
260,27250850.1643548,0.0, 1, 9,30,172810.2991804, 1, 7,30
291,0.0,0.0, 1, 1,15,0.0, 1, 1,15
322,27250850.1643556,0.0, 1, 9,30,172810.299180406, 1, 7,30
323,116347.119456886,0.0, 1, 1,15,7870.19114906377,26, 9,15
324,0.0,0.0, 1, 1,15,0.0, 1, 1,15
325,116347.119456891,0.0, 1, 1,15,7870.19114906411,26, 9,15
408,99979423.989098,0.0, 1, 1,15,166632.373315164, 1, 6,15
461,60086700.4883185,0.0, 1, 1,15,100144.500813864, 1, 6,15
4,151, 5
8,51378180.1108341,7056.14998775423, 1, 8,15,23520.4999591808, 1, 1,15
9,30877806.6204021,4240.68027198349, 1, 8,15,14135.6009066116, 1, 1,15
71,34673963.0943582,0.0, 1, 1,15,42054.5337712045, 1,19,15
93,20838728.1309091,0.0, 1, 1,15,25274.382208501, 1,19,15
125,41886315.6361196,6007.79053874349, 1, 1,15,30038.9526937175, 1,18,15
137,25173284.6796669,3610.62602978586, 1, 1,15,18053.1301489293, 1,18,15
138,297592594.71479,0.0, 1, 1,15,540209.479906965, 5,11,30
139,0.0,0.0, 1, 1,15,0.0, 1, 1,15
140,26.4709531899916,20.6576936749241, 3, 7,30,33.5614431701481,26,16,15
141,26.7519263369752,22.9591457965459, 4,10,30,32.1499561146401,26,22,60
142,26.2894172926444,20.3367481132435, 3, 6,60,33.3962224611739,26,16,15
143,26.380185241318,20.5065769525154, 3, 7,30,33.478832815661,26,16,15
144,26.6960888416913,22.7143291285306, 4, 9,60,32.3304180304789,26,21,60
145,26.7240075893333,22.8400913369983, 4,10,15,32.2285456491658,26,22,60
146,96516603.3334538,0.0,11,18,45,65973.6558130132,17, 5,60
147,44320.502151875,0.0, 1, 1,15,7780.21975651754,21,19,60
148,0.360144278651809,0.350949735854046,23,15,60,0.367475954946704, 1, 3,60
149,60911927.9199502,0.0, 8,18,60,43217.5148307489,17, 5,60
150,81032.7988874179,0.0, 1, 1,15,7549.48383977418,11,18,60
151,0.360650396495798,0.347758410037077,23,15,60,0.369972125360748, 1, 3,60
224,26.2894172926444,20.3367481132435, 3, 6,60,33.3962224611739,26,16,15
225,41.3626841437956,18.5396654296446, 8,16,60,68.7616139704592,28,14,60
258,26.6960888416913,22.7143291285306, 4, 9,60,32.3304180304789,26,21,60
259,40.0590918428854,21.0690565621405, 8,17,15,63.5213285774655,28,15,30
260,0.0,0.0, 1, 1,15,0.0, 1, 1,15
291,0.0,0.0, 1, 1,15,0.0, 1, 1,15
322,0.0,0.0, 1, 1,15,0.0, 1, 1,15
323,0.0,0.0, 1, 1,15,0.0, 1, 1,15
324,0.0,0.0, 1, 1,15,0.0, 1, 1,15
325,0.0,0.0, 1, 1,15,0.0, 1, 1,15
408,103312071.455401,0.0, 1, 1,15,166632.373315164, 1, 6,15
461,62089590.5045958,0.0, 1, 1,15,100144.500813864, 1, 6,15
4,181, 6
8,49769377.9136262,7056.14998775423, 1, 8,15,23520.4999591808, 1, 1,15
9,29910931.5183899,4240.68027198349, 1, 8,15,14135.6009066116, 1, 1,15
71,33517463.4156501,0.0, 1, 1,15,42054.5337712045, 1,19,15
93,20143682.6201753,0.0, 1, 1,15,25274.382208501, 1,19,15
125,40516539.393286,6007.79053874349, 1, 1,15,30038.9526937175, 1,18,15
137,24350061.9448757,3610.62602978586, 1, 1,15,18053.1301489293, 1,18,15
138,266928309.463752,0.0, 1, 1,15,456846.061611881, 1,11,45
139,0.0,0.0, 1, 1,15,0.0, 1, 1,15
140,30.6726697270203,25.3647484180673, 1, 7,15,36.151157554666,10,16,45
141,30.8234528173886,26.8012883404818, 1,10,15,34.7774264815909,11,22,60
142,30.5200299704727,24.9871822525148, 1, 5,60,36.1045623881695,10,19,30
143,30.5963498487465,25.2227337785511, 1, 5,60,36.0630630695789,10,16,45
144,30.7869029735228,26.6107323694813, 1, 9,45,34.9454196960728,11,20,60
145,30.8051778954558,26.7110541155452, 1, 9,45,34.8465608097746,11,22,60
146,93703951.4298669,0.0, 1,15,60,54436.808045028, 1, 4,60
147,644.735914159908,0.0, 1, 1,15,644.735914159908, 1,15,60
148,0.358761695679228,0.352049359449695,15,15,60,0.365746999223227,12, 3,60
149,58248462.3629421,0.0, 1,15,45,37566.8353637843,12, 7,15
150,5375.65186296528,0.0, 1, 1,15,4215.08894795254, 1,15,60
151,0.359087894088998,0.350408167263347,15,15,60,0.368849267714484,12, 6,60
224,30.5200299704727,24.9871822525148, 1, 5,60,36.1045623881695,10,19,30
225,46.5045652475624,18.2177533059627, 1,15,15,74.2843337574299,14, 5,60
258,30.7869029735228,26.6107323694813, 1, 9,45,34.9454196960728,11,20,60
259,45.5176332850873,20.5560419347292, 1,15,15,68.831113072367,14, 5,60
260,0.0,0.0, 1, 1,15,0.0, 1, 1,15
291,0.0,0.0, 1, 1,15,0.0, 1, 1,15
322,0.0,0.0, 1, 1,15,0.0, 1, 1,15
323,0.0,0.0, 1, 1,15,0.0, 1, 1,15
324,0.0,0.0, 1, 1,15,0.0, 1, 1,15
325,0.0,0.0, 1, 1,15,0.0, 1, 1,15
408,99979423.989098,0.0, 1, 1,15,166632.373315164, 1, 6,15
461,60086700.4883185,0.0, 1, 1,15,100144.500813864, 1, 6,15
4,212, 7
8,51754508.110181,7056.14998775423, 1,15,15,23520.4999591808, 1, 1,15
9,31103976.2349079,4240.68027198349, 1,15,15,14135.6009066116, 1, 1,15
71,34379581.3579598,0.0, 1, 1,15,42054.5337712045, 1,19,15
93,20661807.4554496,0.0, 1, 1,15,25274.382208501, 1,19,15
125,41742128.6631898,6007.79053874349, 1, 1,15,30038.9526937175, 1,19,15
137,25086629.654952,3610.62602978586, 1, 1,15,18053.1301489293, 1,19,15
138,229622901.830799,0.0, 1, 1,15,439489.954262621,28,11,45
139,0.0,0.0, 1, 1,15,0.0, 1, 1,15
140,26.1325505847962,23.8925584189687,12, 6,60,31.8262026547323, 1,14,15
141,25.4731639644882,24.4655963899925,17,22,15,30.545596911522, 1, 1,15
142,25.4675272961395,23.9194688312098,12, 4,30,31.7686505065714, 1,13,60
143,25.8000389404679,23.9400012910084,12, 4,30,31.735952572273, 1,13,60
144,25.1828224756879,23.9631296538112,17,14,15,30.3374854271315, 1, 1,15
145,25.3279932200881,24.2347666580231,17,21,60,30.4415411693268, 1, 1,15
146,22986682.3544756,0.0, 1,14, 2,32230.6626193285, 1, 1,15
147,22452080.2152849,0.0, 1, 1,15,51229.173145179,30,14,45
148,0.350135400818817,0.341438441081346,20,15,60,0.357563840472798, 1, 1,60
149,12547431.9559958,0.0, 1,14, 1,23082.2107689862, 1, 3,60
150,13385040.7765576,0.0, 1, 1,15,29529.8093665692,31,15,60
151,0.34980305108483,0.341431339224901,20,15,60,0.359514346432356, 1, 3,60
224,25.4675272961395,23.4647652656526,19,14, 4,31.7686505065714, 1,13,60
225,73.6449331662307,49.9540083115445,12,13,60,91.6682262691607, 2,14, 2
258,25.1828224756879,23.5587809499192,28,14, 3,30.3374854271315, 1, 1,15
259,74.9070410026093,57.7746235786353, 6,22,22,91.7335894794804, 2,14, 2
260,0.0,0.0, 1, 1,15,0.0, 1, 1,15
291,289815162.834153,0.0, 1, 1,15,923426.645619424, 1,14,45
322,2.110111939724778E-006,0.0, 1, 1,15,6.323261914076284E-008, 7,15,15
323,0.0,0.0, 1, 1,15,0.0, 1, 1,15
324,114825073.614653,0.0, 1, 1,15,494660.932959463, 1,14,45
325,6.304870807257017E-007,0.0, 1, 1,15,3.555555849743541E-008, 1,15,15
408,103312071.455401,0.0, 1, 1,15,166632.373315164, 1, 6,15
461,62089590.5045958,0.0, 1, 1,15,100144.500813864, 1, 6,15
4,243, 8
8,51378180.1108341,7056.14998775423, 1, 8,15,23520.4999591808, 1, 1,15
9,30877806.6204021,4240.68027198349, 1, 8,15,14135.6009066116, 1, 1,15
71,34673963.0943582,0.0, 1, 1,15,42054.5337712045, 1,19,15
93,20838728.1309091,0.0, 1, 1,15,25274.382208501, 1,19,15
125,41886315.6361196,6007.79053874349, 1, 1,15,30038.9526937175, 1,18,15
137,25173284.6796668,3610.62602978586, 1, 1,15,18053.1301489293, 1,18,15
138,320664367.586988,0.0, 1, 1,15,662613.093722512,30,10,45
139,0.0,0.0, 1, 1,15,0.0, 1, 1,15
140,26.6273862907992,23.1145854190828,26, 7,15,31.9593991487745, 7,14,15
141,25.5667356305216,24.3402841084141,26, 8,15,27.4985814397013, 7,14,15
142,25.7367755909325,22.9335094057496,26, 7,15,32.0103777199501, 7,13,60
143,26.1820809408657,23.0240474124162,26, 7,15,31.912838842912, 7,13,60
144,25.2076016670148,23.9124048449935,25,14,15,27.7525508315155, 7,13,60
145,25.3871686487682,24.3239650281521,26,21,60,27.5842475501356, 7,13,60
146,25675432.9643593,0.0, 1,14, 1,34938.4592085616,27,11,60
147,24471546.1851697,0.0, 1, 1,15,52267.5874667331, 7,15,60
148,0.349891174570275,0.339021866713367, 7,15,60,0.356973110814545,28, 6,60
149,13044326.4981601,0.0, 1,12,60,19802.8792187741,26, 6,60
150,14707887.9298024,0.0, 1, 1,15,30920.6065384043, 7,15,60
151,0.349275527560307,0.339011916794595, 7,15,60,0.357840288746585,28, 6,60
224,25.7367755909325,22.9335094057496,26, 7,15,32.0103777199501, 7,13,60
225,71.3514238091029,41.0931796570549,30,13,60,93.5051776953373, 2, 5,60
258,25.2076016670148,23.5684884105517,10,14, 3,27.7525508315155, 7,13,60
259,73.5187124797037,54.2853662751324,30,13,60,94.2968109180564, 2, 5,60
260,0.0,0.0, 1, 1,15,0.0, 1, 1,15
291,371050506.450838,0.0, 1, 1,15,954173.300232564,30,14,45
322,3.992998967662841E-006,0.0, 1, 1,15,9.116547516896389E-008, 6,14,45
323,0.0,0.0, 1, 1,15,0.0, 1, 1,15
324,129531960.33803,0.0, 1, 1,15,291145.005230162, 7,14, 1
325,7.575457264660405E-007,0.0, 1, 1,15,1.726618847897044E-008,15,14,60
408,103312071.455401,0.0, 1, 1,15,166632.373315164, 1, 6,15
461,62089590.5045958,0.0, 1, 1,15,100144.500813864, 1, 6,15
4,273, 9
8,49957541.9132997,7056.14998775423, 1, 8,15,23520.4999591808, 1, 1,15
9,30024016.3256428,4240.68027198349, 1, 8,15,14135.6009066116, 1, 1,15
71,33370272.5474509,0.0, 1, 1,15,42054.5337712045, 1,19,15
93,20055222.2824456,0.0, 1, 1,15,25274.382208501, 1,19,15
125,40444445.9068212,6007.79053874349, 1, 1,15,30038.9526937175, 1,18,15
137,24306734.4325183,3610.62602978586, 1, 1,15,18053.1301489293, 1,18,15
138,364388916.009723,0.0, 1, 1,15,772971.080910019,20,10,15
139,0.0,0.0, 1, 1,15,0.0, 1, 1,15
140,25.8165006990911,22.422417341816,30, 7,30,31.9910104767094, 7,14,15
141,25.0852760941358,23.8598383548857,30, 8,30,26.7770646127566, 7,14,15
142,24.9539950457269,22.1832692003328,30, 7,30,31.9033050631461, 7,13,60
143,25.385247872409,22.3028432710744,30, 7,30,31.8585326468915, 7,13,60
144,24.7439185784042,23.7431606822917,30, 7,60,26.9423659351633, 7,13,60
145,24.9145973362701,23.8069808066956,30, 7,60,26.8134924409698, 7,13,60
146,48883859.0781101,0.0, 1,14, 1,48754.9836458185,15,24,60
147,2727923.22730572,0.0, 1, 1,15,25389.1473249994,20,18,60
148,0.353876316407246,0.342473083315087, 6,15,60,0.361602900931624,30,24,60
149,28061367.2979854,0.0, 1,14, 1,29515.1107283749,15,24,60
150,1616908.81478233,0.0, 1, 1,15,16556.9572230848,20,18,60
151,0.353636694335555,0.342477865073113, 6,15,60,0.362675872089428,30,24,60
224,24.9539950457269,22.1832692003328,30, 7,30,31.9033050631461, 7,13,60
225,61.8080790865099,28.8266982997659,16,13,60,86.8733297525156, 9, 6,60
258,24.7439185784042,23.5533642419393,21,14, 3,26.9423659351633, 7,13,60
259,62.0915023581776,36.8202283912671,16,13,60,85.0956432168245, 9, 6,60
260,0.0,0.0, 1, 1,15,0.0, 1, 1,15
291,283507065.775353,0.0, 1, 1,15,952905.825074412, 7,14,45
322,6.187325943877106E-006,0.0, 1, 1,15,8.052438715822063E-008,10,14,60
323,0.0,0.0, 1, 1,15,0.0, 1, 1,15
324,83183073.6286172,0.0, 1, 1,15,211833.200623888, 7,14,45
325,1.704339324429502E-006,0.0, 1, 1,15,1.923581294249743E-008, 6,15,45
408,99979423.989098,0.0, 1, 1,15,166632.373315164, 1, 6,15
461,60086700.4883185,0.0, 1, 1,15,100144.500813864, 1, 6,15
4,304,10
8,51566344.1105076,7056.14998775423, 1,15,15,23520.4999591808, 1, 1,15
9,30990891.427655,4240.68027198349, 1,15,15,14135.6009066116, 1, 1,15
71,34526772.226159,0.0, 1, 1,15,42054.5337712045, 1,19,15
93,20750267.7931793,0.0, 1, 1,15,25274.382208501, 1,19,15
125,41814222.1496547,6007.79053874349, 1, 1,15,30038.9526937175, 1,19,15
137,25129957.1673094,3610.62602978586, 1, 1,15,18053.1301489293, 1,19,15
138,429114249.235511,0.0, 1, 1,15,769299.526834292,12, 9,30
139,0.0,0.0, 1, 1,15,0.0, 1, 1,15
140,27.4010519049354,19.5135702461829,24, 7,30,34.3219300461752, 8,15,45
141,27.3840342893895,22.6421439775157,29, 8,60,31.5822623705783, 5,22,60
142,27.0998599043585,20.,24, 6,60,34.0796436885735, 8,14,60
143,27.2504559046469,19.7567851230914,24, 7,30,34.1782999114526, 8,15,45
144,27.2019940942171,22.4368365128912,31,12,30,31.6080793628095, 5,21,45
145,27.2930141918033,22.6054611811436,29, 7,60,31.5846329045903, 5,21,60
146,127230500.170132,9752.8686458801,14,18,60,76862.4270265205,15,24,60
147,0.0,0.0, 1, 1,15,0.0, 1, 1,15
148,0.364252646218538,0.357708844717993,28,24,30,0.370997561199514,31,21,60
149,77661051.8180712,2499.03239580392,14,18,60,48663.8609832648,15,24,60
150,0.0,0.0, 1, 1,15,0.0, 1, 1,15
151,0.364395534895926,0.354384140441508,27,15,60,0.374314396330977,19, 3,22
224,27.0998599043585,20.,24, 6,60,34.0796436885735, 8,14,60
225,35.9533983609915,13.0172591324513,19,15,30,65.4083211733727,28,24,30
258,27.2019940942171,22.4313054019595,31,12,15,31.6080793628095, 5,21,45
259,35.3986554444848,15.7633879135765,19,15,60,58.7416949715002,28,24,30
260,1015744.08117546,0.0, 1, 1,15,76287.2457255003,24, 7,30
291,0.0,0.0, 1, 1,15,0.0, 1, 1,15
322,1015744.08117549,0.0, 1, 1,15,76287.245725501,24, 7,30
323,0.0,0.0, 1, 1,15,0.0, 1, 1,15
324,0.0,0.0, 1, 1,15,0.0, 1, 1,15
325,0.0,0.0, 1, 1,15,0.0, 1, 1,15
408,103312071.455401,0.0, 1, 1,15,166632.373315164, 1, 6,15
461,62089590.5045958,0.0, 1, 1,15,100144.500813864, 1, 6,15
4,334,11
8,49769377.9136262,7056.14998775423, 1, 9,15,23520.4999591808, 1, 1,15
9,29910931.5183899,4240.68027198349, 1, 9,15,14135.6009066116, 1, 1,15
71,33517463.4156501,0.0, 1, 1,15,42054.5337712045, 1,20,15
93,20143682.6201753,0.0, 1, 1,15,25274.382208501, 1,20,15
125,40516539.3932861,6007.79053874349, 1, 1,15,30038.9526937175, 1,19,15
137,24350061.9448757,3610.62602978586, 1, 1,15,18053.1301489293, 1,19,15
138,358205303.507973,0.0, 1, 1,15,747032.145682582,27,12,30
139,0.0,0.0, 1, 1,15,0.0, 1, 1,15
140,21.4190153403724,17.5816627498436,27, 7,60,28.8905408640266, 7,15,30
141,21.7765005782783,19.6522780236384,11, 8,45,26.3858876371005, 7,23,60
142,21.6035645572295,19.9999999999998,12, 2,15,28.825802913599, 7,14,60
143,21.5112899488009,18.7908313749218,27, 7,60,28.8490626025866, 7,15,15
144,21.6269641953724,19.9999999999999,24, 4,15,26.5761035249267, 7,22,60
145,21.7017323868253,19.8261390118192,11, 8,45,26.4646569563817, 7,23,60
146,131860091.185975,10239.3424238841,18,17,30,81686.3771271052,30,24,60
147,0.0,0.0, 1, 1,15,0.0, 1, 1,15
148,0.367224849167651,0.358369059220046, 5,15,60,0.380947153933794,23, 8,60
149,79565793.2287312,4716.51269509307,14,12,52,48128.2188640392,23, 7,60
150,0.0,0.0, 1, 1,15,0.0, 1, 1,15
151,0.36726344823352,0.354107124495905, 5,15,60,0.380955885720691,23, 8,60
224,21.6035645572295,19.9999999999998,12, 2,15,28.825802913599, 7,14,60
225,34.4014058537894,14.9505674146943,23,13,60,60.8277173911678,19, 9,60
258,21.6269641953724,19.9999999999999,24, 4,15,26.5761035249267, 7,22,60
259,34.0481314030193,15.3446594289446,23,13,15,58.922367647922,19,12,30
260,129926646.893841,0.0, 1, 1,15,285957.179737896,27, 6,60
291,0.0,0.0, 1, 1,15,0.0, 1, 1,15
322,129926646.893844,0.0, 1, 1,15,285957.17973791,27, 6,60
323,10752516.2935343,0.0, 1, 1,15,37766.9642037719,24, 6,60
324,0.0,0.0, 1, 1,15,0.0, 1, 1,15
325,10752517.8096359,0.0, 1, 1,15,37766.9642037743,24, 6,60
408,99979423.989098,0.0, 1, 1,15,166632.373315164, 1, 7,15
461,60086700.4883185,0.0, 1, 1,15,100144.500813864, 1, 7,15
4,365,12
8,51754508.110181,7056.14998775423, 1, 9,15,23520.4999591808, 1, 1,15
9,31103976.2349079,4240.68027198349, 1, 9,15,14135.6009066116, 1, 1,15
71,34379581.3579598,0.0, 1, 1,15,42054.5337712045, 1,20,15
93,20661807.4554496,0.0, 1, 1,15,25274.382208501, 1,20,15
125,41742128.6631898,6007.79053874349, 1, 1,15,30038.9526937175, 1,19,15
137,25086629.654952,3610.62602978586, 1, 1,15,18053.1301489293, 1,19,15
138,395865069.481681,0.0, 1, 1,15,802360.743982048,31,12,45
139,0.0,0.0, 1, 1,15,0.0, 1, 1,15
140,19.6398649361332,17.2967231580434,16, 8,30,24.0193062064872,27,15,60
141,20.1722452935079,19.4895531414638,31, 8,60,21.1516945336951,28,23,45
142,20.3850593360226,19.9999999999998,31, 9,60,23.6879845546568,27,15,45
143,20.0124621360779,18.6483615790217,16, 8,30,23.8504999492843,27,15,60
144,20.0932606327607,19.9999999999999,16, 2,60,21.2515453946467,28,20,60
145,20.1327529631343,19.7447765707319,31, 8,60,21.1935379148604,28,22,60
146,200516955.831189,19161.7599842524,28,12,52,111421.069333878,31, 9,60
147,0.0,0.0, 1, 1,15,0.0, 1, 1,15
148,0.376776081928177,0.36372527215735,29,13,60,0.394458234675425,31,24,60
149,118845650.644441,10500.9519908625,28,12,52,66727.2796699387,31, 9,60
150,0.0,0.0, 1, 1,15,0.0, 1, 1,15
151,0.37640813730007,0.36156639329501,29,15,60,0.394453132787697,31,24,60
224,20.3850593360226,19.9999999999998,31, 9,60,23.6879845546568,27,15,45
225,20.0077276388932,7.27569870007671,15,16,30,40.3511553671834,25, 4,30
258,20.0932606327607,19.9999999999999,16, 2,60,21.2515453946467,28,20,60
259,20.2181751822506,7.32307391204418,16,19,60,40.8924508751123,25, 4,15
260,345096962.08096,0.0, 1,12,30,360227.895206703,31, 6,60
291,0.0,0.0, 1, 1,15,0.0, 1, 1,15
322,345096962.080968,0.0, 1,12,30,360227.895206708,31, 6,60
323,56841974.6161901,0.0, 1,16,60,67236.6359272995,31, 6,60
324,0.0,0.0, 1, 1,15,0.0, 1, 1,15
325,56841978.399669,0.0, 1,16,60,67236.6359273014,31, 6,60
408,103312071.455401,0.0, 1, 1,15,166632.373315164, 1, 7,15
461,62089590.5045958,0.0, 1, 1,15,100144.500813864, 1, 7,15
End of Data
 Number of Records Written=         384
