Program Version,EnergyPlus, Version 8.4.0-09f5359d8a, YMD=2023.08.02 14:39
1,5,Environment Title[],Latitude[deg],Longitude[deg],Time Zone[],Elevation[m]
2,6,Day of Simulation[],Month[],Day of Month[],DST Indicator[1=yes 0=no],Hour[],StartMinute[],EndMinute[],DayType
3,3,Cumulative Day of Simulation[],Month[],Day of Month[],DST Indicator[1=yes 0=no],DayType  ! When Daily Report Variables Requested
4,2,Cumulative Days of Simulation[],Month[]  ! When Monthly Report Variables Requested
5,1,Cumulative Days of Simulation[] ! When Run Period Report Variables Requested
8,9,PERIM,Zone People Total Heating Energy [J] !Monthly  [Value,Min,Day,Hour,Minute,Max,Day,Hour,Minute]
9,9,CORE,Zone People Total Heating Energy [J] !Monthly  [Value,Min,Day,Hour,Minute,Max,Day,Hour,Minute]
71,9,PERIM,Zone Lights Electric Energy [J] !Monthly  [Value,Min,Day,Hour,Minute,Max,Day,Hour,Minute]
93,9,CORE,Zone Lights Electric Energy [J] !Monthly  [Value,Min,Day,Hour,Minute,Max,Day,Hour,Minute]
125,9,PERIM,Zone Electric Equipment Electric Energy [J] !Monthly  [Value,Min,Day,Hour,Minute,Max,Day,Hour,Minute]
137,9,CORE,Zone Electric Equipment Electric Energy [J] !Monthly  [Value,Min,Day,Hour,Minute,Max,Day,Hour,Minute]
138,9,PERIM,Zone Windows Total Transmitted Solar Radiation Energy [J] !Monthly  [Value,Min,Day,Hour,Minute,Max,Day,Hour,Minute]
139,9,CORE,Zone Windows Total Transmitted Solar Radiation Energy [J] !Monthly  [Value,Min,Day,Hour,Minute,Max,Day,Hour,Minute]
140,9,PERIM,Zone Mean Radiant Temperature [C] !Monthly [Value,Min,Day,Hour,Minute,Max,Day,Hour,Minute]
141,9,CORE,Zone Mean Radiant Temperature [C] !Monthly [Value,Min,Day,Hour,Minute,Max,Day,Hour,Minute]
142,9,PERIM,Zone Mean Air Temperature [C] !Monthly [Value,Min,Day,Hour,Minute,Max,Day,Hour,Minute]
143,9,PERIM,Zone Operative Temperature [C] !Monthly [Value,Min,Day,Hour,Minute,Max,Day,Hour,Minute]
144,9,CORE,Zone Mean Air Temperature [C] !Monthly [Value,Min,Day,Hour,Minute,Max,Day,Hour,Minute]
145,9,CORE,Zone Operative Temperature [C] !Monthly [Value,Min,Day,Hour,Minute,Max,Day,Hour,Minute]
146,9,PERIM,Zone Infiltration Total Heat Loss Energy [J] !Monthly  [Value,Min,Day,Hour,Minute,Max,Day,Hour,Minute]
147,9,PERIM,Zone Infiltration Total Heat Gain Energy [J] !Monthly  [Value,Min,Day,Hour,Minute,Max,Day,Hour,Minute]
148,9,PERIM,Zone Infiltration Air Change Rate [ach] !Monthly [Value,Min,Day,Hour,Minute,Max,Day,Hour,Minute]
149,9,CORE,Zone Infiltration Total Heat Loss Energy [J] !Monthly  [Value,Min,Day,Hour,Minute,Max,Day,Hour,Minute]
150,9,CORE,Zone Infiltration Total Heat Gain Energy [J] !Monthly  [Value,Min,Day,Hour,Minute,Max,Day,Hour,Minute]
151,9,CORE,Zone Infiltration Air Change Rate [ach] !Monthly [Value,Min,Day,Hour,Minute,Max,Day,Hour,Minute]
224,9,PERIM,Zone Air Temperature [C] !Monthly [Value,Min,Day,Hour,Minute,Max,Day,Hour,Minute]
225,9,PERIM,Zone Air Relative Humidity [%] !Monthly [Value,Min,Day,Hour,Minute,Max,Day,Hour,Minute]
258,9,CORE,Zone Air Temperature [C] !Monthly [Value,Min,Day,Hour,Minute,Max,Day,Hour,Minute]
259,9,CORE,Zone Air Relative Humidity [%] !Monthly [Value,Min,Day,Hour,Minute,Max,Day,Hour,Minute]
260,9,PERIM IDEAL LOADS AIR,Zone Ideal Loads Supply Air Total Heating Energy [J] !Monthly  [Value,Min,Day,Hour,Minute,Max,Day,Hour,Minute]
291,9,PERIM IDEAL LOADS AIR,Zone Ideal Loads Supply Air Total Cooling Energy [J] !Monthly  [Value,Min,Day,Hour,Minute,Max,Day,Hour,Minute]
322,9,PERIM IDEAL LOADS AIR,Zone Ideal Loads Zone Total Heating Energy [J] !Monthly  [Value,Min,Day,Hour,Minute,Max,Day,Hour,Minute]
323,9,CORE IDEAL LOADS AIR,Zone Ideal Loads Supply Air Total Heating Energy [J] !Monthly  [Value,Min,Day,Hour,Minute,Max,Day,Hour,Minute]
324,9,CORE IDEAL LOADS AIR,Zone Ideal Loads Supply Air Total Cooling Energy [J] !Monthly  [Value,Min,Day,Hour,Minute,Max,Day,Hour,Minute]
325,9,CORE IDEAL LOADS AIR,Zone Ideal Loads Zone Total Heating Energy [J] !Monthly  [Value,Min,Day,Hour,Minute,Max,Day,Hour,Minute]
408,9,DHW PERIM,Water Use Equipment Heating Energy [J] !Monthly  [Value,Min,Day,Hour,Minute,Max,Day,Hour,Minute]
461,9,DHW CORE,Water Use Equipment Heating Energy [J] !Monthly  [Value,Min,Day,Hour,Minute,Max,Day,Hour,Minute]
End of Data Dictionary
1,ARCHSIM,  37.57, 126.97,   9.00,  87.10
4,31, 1
8,51566344.1338689,7056.14999095079, 1,16,15,23520.499969836, 1, 1,15
9,30990891.4248457,4240.68027159901, 1,16,15,14135.60090533, 1, 1,15
71,34526772.2418001,0.0, 1, 1,15,42054.5337902559, 1,20,15
93,20750267.791298,0.0, 1, 1,15,25274.3822062095, 1,20,15
125,41814222.1685972,6007.79054146512, 1, 1,15,30038.9527073256, 1,20,15
137,25129957.1650313,3610.6260294585, 1, 1,15,18053.1301472925, 1,20,15
138,154491843.473427,0.0, 1, 1,15,245118.273235947,31, 8,45
139,0.0,0.0, 1, 1,15,0.0, 1, 1,15
140,18.239158793292,17.0842923360217,23, 7,60,19.9360339116836, 8,15,15
141,19.7022556391376,19.4091572213292,15, 8,60,20.0727716866514, 8,23,60
142,20.,19.9999999999997,19, 5,60,20.0000000000002,24, 5,60
143,19.119579396646,18.5421461680108,23, 7,60,19.9680169558418, 8,15,15
144,20.0019267608843,19.9999999999999,23, 5,15,20.2153885580347, 8,20,45
145,19.852091200011,19.7045786106646,15, 8,60,20.115921766901, 8,21,60
146,211836637.750937,25436.5268423513, 6,15,60,109012.619093396,23, 6,60
147,0.0,0.0, 1, 1,15,0.0, 1, 1,15
148,0.378526280107622,0.361402949365914, 6,15,60,0.393916238098335,23, 6,60
149,127289185.282247,15243.0204480071, 6,15,60,65595.1140957759,23, 6,60
150,0.0,0.0, 1, 1,15,0.0, 1, 1,15
151,0.378528925994476,0.361403846343391, 6,15,60,0.393914597941812,23, 6,60
224,20.,19.9999999999997,19, 5,60,20.0000000000002,24, 5,60
225,17.6632537091754,6.84474529601793,14,19,60,34.9323346224892, 2,22,45
258,20.0019267608843,19.9999999999999,23, 5,15,20.2153885580347, 8,20,45
259,17.6429749441985,6.25314905348519,14,19,60,35.3143538229733, 2,22,30
260,627351986.368136,25260.2065279252, 8,15,15,392012.060975549,23, 6,60
291,0.0,0.0, 1, 1,15,0.0, 1, 1,15
322,627351986.368147,25260.2065279266, 8,15,15,392012.060975558,23, 6,60
323,106594401.769107,0.0, 2,19,15,75134.2864078205,23, 6,60
324,0.0,0.0, 1, 1,15,0.0, 1, 1,15
325,106594401.76911,0.0, 2,19,15,75134.2864078219,23, 6,60
408,103312071.502203,0.0, 1, 1,15,166632.37339065, 1, 7,15
461,62089590.4989668,0.0, 1, 1,15,100144.500804785, 1, 7,15
4,59, 2
8,46551773.5402998,7056.14999095079, 1, 9,15,23520.499969836, 1, 1,15
9,27977181.3118293,4240.68027159901, 1, 9,15,14135.60090533, 1, 1,15
71,31204464.0723699,0.0, 1, 1,15,42054.5337902559, 1,20,15
93,18753591.5970075,0.0, 1, 1,15,25274.3822062095, 1,20,15
125,37776986.9247326,6007.79054146512, 1, 1,15,30038.9527073256, 1,19,15
137,22703616.4732351,3610.6260294585, 1, 1,15,18053.1301472925, 1,19,15
138,198087733.224197,0.0, 1, 1,15,400072.305568757,28, 8,45
139,0.0,0.0, 1, 1,15,0.0, 1, 1,15
140,18.749827618308,17.2974872217985, 8, 6,60,21.1329379756958,27,15,60
141,19.8704315809457,19.5095545492458,10, 7,60,20.6040512073285,27,23,30
142,20.0173750100232,19.9999999999998, 8, 6,15,20.8207102847718,27,15,60
143,19.3836013141656,18.6487436108992, 8, 6,60,20.9768241302338,27,15,60
144,20.0326715276812,19.9999999999999, 8, 4,45,20.806279662773,23,20,45
145,19.9515515543134,19.7547772746229,10, 7,60,20.6732609861777,27,20,60
146,167058902.863159,14873.7327214442,23,19,45,100115.885697539, 8, 6,60
147,0.0,0.0, 1, 1,15,0.0, 1, 1,15
148,0.37472078267171,0.358539737883312,24,15,60,0.390169940837946, 8, 6,60
149,100604121.602057,9471.61993854029,23,18,60,60141.4645592889, 8, 6,60
150,0.0,0.0, 1, 1,15,0.0, 1, 1,15
151,0.374739270524938,0.35802144328487,23,15,60,0.3901705038489, 8, 6,60
224,20.0173750100232,19.9999999999998, 8, 6,15,20.8207102847718,27,15,60
225,18.4084799085347,6.43452305741667, 9,17,60,37.9741412127073, 3,22,15
258,20.0326715276812,19.9999999999999, 8, 4,45,20.806279662773,23,20,45
259,18.458699417294,6.1173161051105, 9,17,60,38.3746697250056, 3,21,60
260,418345787.033748,0.0,22,15,60,355644.752935825, 8, 6,60
291,0.0,0.0, 1, 1,15,0.0, 1, 1,15
322,418345787.033757,0.0,22,15,60,355644.752935833, 8, 6,60
323,68233613.668408,0.0, 2,20,15,65607.8236735764, 8, 6,60
324,0.0,0.0, 1, 1,15,0.0, 1, 1,15
325,68233613.6684101,0.0, 2,20,15,65607.8236735766, 8, 6,60
408,93314129.0987639,0.0, 1, 1,15,166632.37339065, 1, 7,15
461,56080920.4506796,0.0, 1, 1,15,100144.500804785, 1, 7,15
4,90, 3
8,51378180.1341103,7056.14999095079, 1, 9,15,23520.499969836, 1, 1,15
9,30877806.6176031,4240.68027159901, 1, 9,15,14135.60090533, 1, 1,15
71,34673963.110066,0.0, 1, 1,15,42054.5337902559, 1,20,15
93,20838728.1290197,0.0, 1, 1,15,25274.3822062095, 1,20,15
125,41886315.6550948,6007.79054146512, 1, 1,15,30038.9527073256, 1,19,15
137,25173284.6773847,3610.6260294585, 1, 1,15,18053.1301472925, 1,19,15
138,355640159.253237,0.0, 1, 1,15,769990.072281885,30, 8,30
139,0.0,0.0, 1, 1,15,0.0, 1, 1,15
140,20.3613271966964,17.6643520090218, 8, 6,60,24.2950666727986,30,16,30
141,20.7845450491391,19.6269411477803, 8, 7,60,22.9953155152852,30,22,60
142,20.6475625314858,19.9999999999998,13, 6,60,24.1411343826485,30,18,30
143,20.5044448640911,18.8321760045109, 8, 6,60,24.1609038722736,30,16,30
144,20.6535178093087,19.9999999999999, 7, 5,30,23.1314687149026,30,21,60
145,20.7190314292239,19.8134705738902, 8, 7,60,23.0494102412517,30,22,60
146,140937761.852391,6810.2381211158,19,19,60,81807.8518372919, 8, 6,60
147,0.0,0.0, 1, 1,15,0.0, 1, 1,15
148,0.368279120051509,0.355648498113794,19,15,60,0.383188319867306, 8, 6,60
149,85052868.8068125,3159.64703182529,19,19,60,49444.795008623, 8, 6,60
150,0.0,0.0, 1, 1,15,0.0, 1, 1,15
151,0.368290313869326,0.353647731617165,19,15,60,0.383182522943854, 8, 6,60
224,20.6475625314858,19.9999999999998,13, 6,60,24.1411343826485,30,18,30
225,22.8759936906727,8.55060150564506, 7,17,60,39.9561033135743,31,22,15
258,20.6535178093087,19.9999999999999, 7, 5,30,23.1314687149026,30,21,60
259,22.930446370319,8.44707783104958, 7,17,60,37.6208479509076,13, 1,30
260,170310199.96594,0.0, 1,12,30,289152.432777113, 8, 6,60
291,0.0,0.0, 1, 1,15,0.0, 1, 1,15
322,170310199.965944,0.0, 1,12,30,289152.432777113, 8, 6,60
323,17607447.8634251,0.0, 1, 1,15,49277.1358364104, 8, 6,60
324,0.0,0.0, 1, 1,15,0.0, 1, 1,15
325,17607447.8634257,0.0, 1, 1,15,49277.1358364104, 8, 6,60
408,103312071.502203,0.0, 1, 1,15,166632.37339065, 1, 7,15
461,62089590.4989668,0.0, 1, 1,15,100144.500804785, 1, 7,15
4,120, 4
8,50145705.9356908,7056.14999095079, 1,15,15,23520.499969836, 1, 1,15
9,30137101.1301637,4240.68027159901, 1,15,15,14135.60090533, 1, 1,15
71,33223081.6943022,0.0, 1, 1,15,42054.5337902559, 1,19,15
93,19966761.9429055,0.0, 1, 1,15,25274.3822062095, 1,19,15
125,40372352.4386455,6007.79054146512, 1, 1,15,30038.9527073256, 1,19,15
137,24263406.9179613,3610.6260294585, 1, 1,15,18053.1301472925, 1,19,15
138,387401461.56076,0.0, 1, 1,15,1030014.34161254,29, 8,30
139,0.0,0.0, 1, 1,15,0.0, 1, 1,15
140,23.8536516161515,18.3337575955047, 1, 7,15,30.5291877368466,11,16,60
141,23.9973068829661,20.3301544131008, 2, 8,15,29.1548748679663,12,22,45
142,23.6652299625854,19.9999999999999, 1, 6,45,30.4812949151853,11,18,30
143,23.7594407893684,19.1668787977524, 1, 7,15,30.450111542997,11,17,15
144,23.8528201332515,20., 2, 7,60,29.2774551971093,12,19,60
145,23.9250635081088,20.1681786309051, 2, 7,60,29.1947308632154,12,21,60
146,111968606.443014,0.0,19,19,60,66521.3357954822,11,22,60
147,3496.46776955853,0.0, 1, 1,15,3496.46776955853,19,19,60
148,0.363718423673042,0.353694580927703,19,12,60,0.373483533489053, 1, 9,45
149,68799277.9546224,0.0,19,19,45,41439.3164820357, 1, 1,60
150,12704.1343705461,0.0, 1, 1,15,6136.21215914517,19,19,60
151,0.363962815376365,0.350433760893108,19,12,60,0.373336036725534, 1, 2,60
224,23.6652299625854,19.9999999999999, 1, 6,45,30.4812949151853,11,18,30
225,32.6905179548578,14.9229388361235,18,17,15,60.9814221593086,20,23,45
258,23.8528201332515,20., 2, 7,60,29.2774551971093,12,19,60
259,32.0598013405772,16.4302003188447,18,18,15,53.2903724651436,20,24,30
260,25832456.4005667,0.0, 1, 8,22,193559.47383743, 1, 7,15
291,0.0,0.0, 1, 1,15,0.0, 1, 1,15
322,25832456.4005674,0.0, 1, 8,22,193559.47383743, 1, 7,15
323,21300.8643622417,0.0, 1, 1,15,5951.84270848528, 2, 7,60
324,0.0,0.0, 1, 1,15,0.0, 1, 1,15
325,21300.8643622421,0.0, 1, 1,15,5951.84270848531, 2, 7,60
408,99979424.0343899,0.0, 1, 1,15,166632.37339065, 1, 6,15
461,60086700.4828711,0.0, 1, 1,15,100144.500804785, 1, 6,15
4,151, 5
8,51378180.1341103,7056.14999095079, 1, 8,15,23520.499969836, 1, 1,15
9,30877806.617603,4240.68027159901, 1, 8,15,14135.60090533, 1, 1,15
71,34673963.110066,0.0, 1, 1,15,42054.5337902559, 1,19,15
93,20838728.1290197,0.0, 1, 1,15,25274.3822062095, 1,19,15
125,41886315.6550947,6007.79054146512, 1, 1,15,30038.9527073256, 1,18,15
137,25173284.6773847,3610.6260294585, 1, 1,15,18053.1301472925, 1,18,15
138,461819938.462661,0.0, 1, 1,15,1091482.3706189,16, 8,30
139,0.0,0.0, 1, 1,15,0.0, 1, 1,15
140,29.3004019330969,22.327705195215, 3, 6,30,38.0222859433559,26,16,15
141,29.2560856919432,25.0647414907262, 3, 8,45,35.576718085639,26,22,60
142,28.9796761284062,21.9632878154982, 3, 6,30,37.661651213882,26,15,60
143,29.1400390307515,22.1454965053566, 3, 6,30,37.8408609139744,26,16,15
144,29.098130497484,24.7246592123785, 3, 9,30,35.5821811341512,26,21,60
145,29.1771080947135,24.9132831060313, 3, 9,15,35.563559211086,26,21,60
146,122869164.235825,0.0,11,18,60,72199.0782159831, 8, 1,60
147,47.2896424760802,0.0, 1, 1,15,47.2896424760802,11,18,60
148,0.363177290153073,0.35468350256899,25,15,60,0.371367266367905, 6, 9,37
149,75310362.9139484,0.0,11,18,60,48246.6727395085,17, 5,60
150,14685.2962801466,0.0, 1, 1,15,3407.39549046905,11,18,60
151,0.363338403978819,0.351571595922125,23,15,60,0.372739927281136, 6, 6,37
224,28.9796761284062,21.9632878154982, 3, 6,30,37.661651213882,26,15,60
225,36.7708503205465,16.3904365201669, 8,16,60,63.7931800432196,29, 4,30
258,29.098130497484,24.7150063378241, 3, 9,15,35.5821811341512,26,21,60
259,36.0007572969993,18.4968682259613, 8,17,15,57.999460033141,28,15,30
260,0.0,0.0, 1, 1,15,0.0, 1, 1,15
291,0.0,0.0, 1, 1,15,0.0, 1, 1,15
322,0.0,0.0, 1, 1,15,0.0, 1, 1,15
323,0.0,0.0, 1, 1,15,0.0, 1, 1,15
324,0.0,0.0, 1, 1,15,0.0, 1, 1,15
325,0.0,0.0, 1, 1,15,0.0, 1, 1,15
408,103312071.502203,0.0, 1, 1,15,166632.37339065, 1, 6,15
461,62089590.4989668,0.0, 1, 1,15,100144.500804785, 1, 6,15
4,181, 6
8,49769377.9361735,7056.14999095079, 1, 8,15,23520.499969836, 1, 1,15
9,29910931.5156785,4240.68027159901, 1, 8,15,14135.60090533, 1, 1,15
71,33517463.430834,0.0, 1, 1,15,42054.5337902559, 1,19,15
93,20143682.618349,0.0, 1, 1,15,25274.3822062095, 1,19,15
125,40516539.4116408,6007.79054146512, 1, 1,15,30038.9527073256, 1,18,15
137,24350061.9426682,3610.6260294585, 1, 1,15,18053.1301472925, 1,18,15
138,515669643.673236,0.0, 1, 1,15,1236721.96804887, 1, 8,30
139,0.0,0.0, 1, 1,15,0.0, 1, 1,15
140,35.4991091591476,28.0104423166434, 1, 6,15,43.6016140183037,11,15,30
141,35.1887473294623,30.175452611565, 1, 6,60,41.0609001876302,11,22,15
142,35.1242056958609,27.4900111286723, 1, 5,60,43.1814778449658,11,10,60
143,35.3116574275043,27.7657044017976, 1, 6,15,43.3546447697094,11,14,60
144,34.9729973188239,29.8166414506836, 1, 5,60,41.0638350542404,11,20,60
145,35.0808723241431,30.0315498374799, 1, 6,60,41.044538456683,11,20,60
146,136800969.708218,10187.1195263518,18, 8,18,74801.3247445556,11,10,15
147,0.0,0.0, 1, 1,15,0.0, 1, 1,15
148,0.36400034228287,0.356657069430996,15,15,60,0.371790536989176,12, 3,22
149,82477056.1344554,3765.38050276154, 1,15,60,47499.4505322042,12, 6,60
150,0.0,0.0, 1, 1,15,0.0, 1, 1,15
151,0.363836215606838,0.354195662863494,15,15,60,0.375084756466425,12, 6,30
224,35.1242056958609,27.4900111286723, 1, 5,60,43.1814778449658,11,10,60
225,37.927253881279,14.4964173514072, 1,15,15,66.8491244260354,14, 5,60
258,34.9729973188239,29.8166414506836, 1, 5,60,41.0638350542404,11,20,60
259,37.7201254508058,16.8783980764614, 1,15,15,60.3403814193931,14, 5,60
260,0.0,0.0, 1, 1,15,0.0, 1, 1,15
291,0.0,0.0, 1, 1,15,0.0, 1, 1,15
322,0.0,0.0, 1, 1,15,0.0, 1, 1,15
323,0.0,0.0, 1, 1,15,0.0, 1, 1,15
324,0.0,0.0, 1, 1,15,0.0, 1, 1,15
325,0.0,0.0, 1, 1,15,0.0, 1, 1,15
408,99979424.0343899,0.0, 1, 1,15,166632.37339065, 1, 6,15
461,60086700.4828711,0.0, 1, 1,15,100144.500804785, 1, 6,15
4,212, 7
8,51754508.1336276,7056.14999095079, 1,15,15,23520.499969836, 1, 1,15
9,31103976.2320883,4240.68027159901, 1,15,15,14135.60090533, 1, 1,15
71,34379581.3735342,0.0, 1, 1,15,42054.5337902559, 1,19,15
93,20661807.4535763,0.0, 1, 1,15,25274.3822062095, 1,19,15
125,41742128.6820996,6007.79054146512, 1, 1,15,30038.9527073256, 1,19,15
137,25086629.6526778,3610.6260294585, 1, 1,15,18053.1301472925, 1,19,15
138,401045891.585046,0.0, 1, 1,15,1038771.56509972,12, 8,30
139,0.0,0.0, 1, 1,15,0.0, 1, 1,15
140,27.1978315831981,24.1303649469844,12, 4,30,37.4163990671256, 1,14,15
141,25.923437570602,24.5700298727853,17,22,15,34.188892418953, 1,14,15
142,26.2075407536396,23.904423887018, 3,14,15,37.1562646887305, 1,13,60
143,26.7026861684189,24.1067759628844,12, 4,30,37.2609555918027, 1,13,60
144,25.4643451635473,23.9538704252244, 3,14,15,34.1885677141603, 1,13,60
145,25.6938913670747,24.288843765745,17,21,60,34.1619962079524, 1,13,60
146,28863768.0260436,0.0, 1,14, 2,48072.7026102977, 1,10,15
147,23423419.8795041,0.0, 1, 1,15,52192.6920558299,30,14,30
148,0.350853648880192,0.341281055248782,20,15,60,0.363718719061372, 1, 9,52
149,13652205.2087721,0.0, 1,14, 2,30544.2648765677, 1, 3,60
150,13944333.254826,0.0, 1, 1,15,30162.7696495591,31,15,60
151,0.349986076201409,0.341270232205683,20,15,60,0.363162017347501, 1, 1,15
224,26.2075407536396,23.419309699801, 2,14, 5,37.1562646887305, 1,13,60
225,70.8894342755007,39.9245869210882,12,13,60,90.8477865179466, 2,14, 3
258,25.4643451635473,23.5513299203714,19,14, 3,34.1885677141603, 1,13,60
259,73.6827155151678,49.2917898677068, 1,13,60,90.3835055963205, 2,14, 3
260,0.0,0.0, 1, 1,15,0.0, 1, 1,15
291,401383357.049099,0.0, 1, 1,15,1726762.55626372, 1,14,45
322,4.249325797900383E-006,0.0, 1, 1,15,1.371063262922689E-007, 5,14,45
323,0.0,0.0, 1, 1,15,0.0, 1, 1,15
324,153408873.194265,0.0, 1, 1,15,918354.037858609, 1,14,45
325,1.151483388639463E-006,0.0, 1, 1,15,3.402078618819360E-008,30,14,45
408,103312071.502203,0.0, 1, 1,15,166632.37339065, 1, 6,15
461,62089590.4989668,0.0, 1, 1,15,100144.500804785, 1, 6,15
4,243, 8
8,51378180.1341103,7056.14999095079, 1, 8,15,23520.499969836, 1, 1,15
9,30877806.617603,4240.68027159901, 1, 8,15,14135.60090533, 1, 1,15
71,34673963.110066,0.0, 1, 1,15,42054.5337902559, 1,19,15
93,20838728.1290197,0.0, 1, 1,15,25274.3822062095, 1,19,15
125,41886315.6550947,6007.79054146512, 1, 1,15,30038.9527073256, 1,18,15
137,25173284.6773847,3610.6260294585, 1, 1,15,18053.1301472925, 1,18,15
138,388867661.652003,0.0, 1, 1,15,943007.193143989, 7, 8,30
139,0.0,0.0, 1, 1,15,0.0, 1, 1,15
140,27.0307343145607,23.2530455349424,26, 6,60,34.0977145722211, 7,14,15
141,25.7349956244094,24.4475653645613,26, 8,15,28.6168903576898, 7,14,15
142,26.0384192737392,23.0597985492539,26, 6,60,34.0395049755225, 7,13,60
143,26.53457679415,23.1564220420981,26, 6,60,34.0342498600799, 7,13,60
144,25.3099647770708,23.9542429172029,25,14,15,28.8369219246875, 7,13,60
145,25.5224802007401,24.3734224532152,26,21,60,28.6794063115814, 7,13,60
146,27543869.1302601,0.0, 1,14, 1,36824.9450313467,27,11,60
147,25127322.2793995,0.0, 1, 1,15,52992.6560140267, 7,15,60
148,0.350082508590346,0.338864130558566, 7,15,60,0.357544703290845,28, 9,37
149,13055188.9007414,0.0, 1,13,15,19771.2149389261,26, 6,60
150,15081525.9088512,0.0, 1, 1,15,31300.2725651498, 7,15,60
151,0.34923559057097,0.338853034778678, 7,15,60,0.357650453917149,28, 6,60
224,26.0384192737392,23.0597985492539,26, 6,60,34.0395049755225, 7,13,60
225,70.1578917052732,44.8742138924843,30,13,60,93.0109693774947, 2, 5,60
258,25.3099647770708,23.568357267484,31,14, 3,28.8369219246875, 7,13,60
259,72.9980912017659,54.2079621440651,30,13,60,93.781471276226, 2, 5,60
260,0.0,0.0, 1, 1,15,0.0, 1, 1,15
291,399065508.834591,0.0, 1, 1,15,1231856.37593888, 7,14,45
322,4.551318011993187E-006,0.0, 1, 1,15,1.117314241128042E-007,13,14,60
323,0.0,0.0, 1, 1,15,0.0, 1, 1,15
324,144775341.869187,0.0, 1, 1,15,369979.099731401, 7,14,45
325,1.076055252521460E-006,0.0, 1, 1,15,4.635012373910286E-008,13,14,45
408,103312071.502203,0.0, 1, 1,15,166632.37339065, 1, 6,15
461,62089590.4989668,0.0, 1, 1,15,100144.500804785, 1, 6,15
4,273, 9
8,49957541.9359321,7056.14999095079, 1, 8,15,23520.499969836, 1, 1,15
9,30024016.3229211,4240.68027159901, 1, 8,15,14135.60090533, 1, 1,15
71,33370272.5625681,0.0, 1, 1,15,42054.5337902559, 1,19,15
93,20055222.2806272,0.0, 1, 1,15,25274.3822062095, 1,19,15
125,40444445.9251432,6007.79054146512, 1, 1,15,30038.9527073256, 1,18,15
137,24306734.4303147,3610.6260294585, 1, 1,15,18053.1301472925, 1,18,15
138,313957002.680874,0.0, 1, 1,15,840142.376722201,16, 8,30
139,0.0,0.0, 1, 1,15,0.0, 1, 1,15
140,25.5541504598489,22.4344547748921,30, 7,30,30.3293553326727, 7,14,15
141,25.0214942245192,23.9140408024609,30, 8,15,26.6289868876315, 7,14,15
142,24.8475794541622,22.2016198830301,30, 7,30,30.2476497556179, 7,13,60
143,25.2008649570055,22.3180373289611,30, 7,30,30.2271200024744, 7,13,60
144,24.7168725483387,23.7899432472254,30, 7,60,26.8289703170423, 7,13,60
145,24.8691833864289,23.8526701312611,30, 7,60,26.6946223890696, 7,13,60
146,46436571.0715104,0.0, 1,14, 1,47754.4017733182,15,24,60
147,2855494.47782236,0.0, 1, 1,15,26974.8409145667,20,18,60
148,0.353571015820819,0.342308815624882, 6,15,60,0.36126342132405,30,24,60
149,27203590.1609904,0.0, 1,13,15,29227.1947000286,15,24,60
150,1708621.97139511,0.0, 1, 1,15,17021.2357970404,20,18,60
151,0.353423107380259,0.342312576697459, 6,15,60,0.362414814863467,30,24,60
224,24.8475794541622,22.2016198830301,30, 7,30,30.2476497556179, 7,13,60
225,61.9341839209306,31.9097309425824,16,13,60,88.4343837845135, 9, 6,60
258,24.7168725483387,23.6073948609763, 5,14, 2,26.8289703170423, 7,13,60
259,62.1227538456903,36.7554737799902,16,13,60,85.6178038863264, 9, 6,60
260,0.0,0.0, 1, 1,15,0.0, 1, 1,15
291,218693555.094258,0.0, 1, 1,15,721732.68655188, 7,14,45
322,5.023302004776990E-006,0.0, 1, 1,15,5.172182682144921E-008,10,15,45
323,0.0,0.0, 1, 1,15,0.0, 1, 1,15
324,76881680.0966635,0.0, 1, 1,15,200307.186315469, 8,14,45
325,1.645843142811315E-006,0.0, 1, 1,15,2.826539002853679E-008, 9,14,45
408,99979424.0343899,0.0, 1, 1,15,166632.37339065, 1, 6,15
461,60086700.4828711,0.0, 1, 1,15,100144.500804785, 1, 6,15
4,304,10
8,51566344.1338689,7056.14999095079, 1,15,15,23520.499969836, 1, 1,15
9,30990891.4248457,4240.68027159901, 1,15,15,14135.60090533, 1, 1,15
71,34526772.2418001,0.0, 1, 1,15,42054.5337902559, 1,19,15
93,20750267.791298,0.0, 1, 1,15,25274.3822062095, 1,19,15
125,41814222.1685972,6007.79054146512, 1, 1,15,30038.9527073256, 1,19,15
137,25129957.1650313,3610.6260294585, 1, 1,15,18053.1301472925, 1,19,15
138,239404418.141371,0.0, 1, 1,15,574344.00328275, 1, 8,30
139,0.0,0.0, 1, 1,15,0.0, 1, 1,15
140,23.4415570224614,18.6098980657747,24, 7,30,29.2630550685474, 7,15,60
141,24.0063164276258,20.5032053835041,31,18,60,28.4032087735084, 7,22,60
142,23.3793595014962,19.9999999999999,24, 2,60,29.1341255252223, 7,14,60
143,23.4104582619788,19.3049490328873,24, 7,30,29.1646731739821, 7,14,60
144,23.9841977220912,20.2176007011381,31,12,30,28.6390155262706, 7,22,60
145,23.9952570748585,20.3788475736048,31,12,45,28.5211121498895, 7,22,60
146,87728537.2127032,0.0,14,18,45,56854.5079087486,15,24,60
147,23088.0742693034,0.0, 1, 1,15,10080.9985925398,14,18,60
148,0.359587360665759,0.351410639854797,22,15,60,0.369208562497163,24, 6,60
149,56667955.246182,0.0,14,18,45,37227.1798052366,15,24,60
150,16793.60891107,0.0, 1, 1,15,6685.84994932979,14,18,60
151,0.360326518883161,0.349852890178347,22,15,60,0.370348921570707,24, 6,60
224,23.3793595014962,19.9999999999999,24, 2,60,29.1341255252223, 7,14,60
225,42.1528821972063,18.4984547999259,19,15,30,70.1894829718838,28,24,15
258,23.9841977220912,20.2176007011381,31,12,30,28.6390155262706, 7,22,60
259,40.8409383033943,18.9400266362755,19,15,30,65.4868091588022,28,24,30
260,17165132.6688145,0.0, 1, 1,15,140594.102904307,24, 6,60
291,0.0,0.0, 1, 1,15,0.0, 1, 1,15
322,17165132.6688151,0.0, 1, 1,15,140594.102904317,24, 6,60
323,0.0,0.0, 1, 1,15,0.0, 1, 1,15
324,0.0,0.0, 1, 1,15,0.0, 1, 1,15
325,0.0,0.0, 1, 1,15,0.0, 1, 1,15
408,103312071.502203,0.0, 1, 1,15,166632.37339065, 1, 6,15
461,62089590.4989668,0.0, 1, 1,15,100144.500804785, 1, 6,15
4,334,11
8,49769377.9361735,7056.14999095079, 1, 9,15,23520.499969836, 1, 1,15
9,29910931.5156785,4240.68027159901, 1, 9,15,14135.60090533, 1, 1,15
71,33517463.430834,0.0, 1, 1,15,42054.5337902559, 1,20,15
93,20143682.618349,0.0, 1, 1,15,25274.3822062095, 1,20,15
125,40516539.4116407,6007.79054146512, 1, 1,15,30038.9527073256, 1,19,15
137,24350061.9426682,3610.6260294585, 1, 1,15,18053.1301472925, 1,19,15
138,151466482.903278,0.0, 1, 1,15,217011.004782535,15,12,30
139,0.0,0.0, 1, 1,15,0.0, 1, 1,15
140,19.2236064228479,17.4708929489954,27, 7,60,22.1988441487232, 7,16,30
141,20.153101956501,19.5457543540236,27, 7,60,21.9849958022328, 7,24,30
142,20.1280937730947,19.9999999999998, 9, 2,30,22.2359756173092, 7,16,30
143,19.6758500979713,18.7354464744978,27, 7,60,22.2174098830162, 7,16,30
144,20.2558306556586,19.9999999999999,28, 5,30,22.355166178686, 7,23,60
145,20.2044663060798,19.7728771770118,27, 7,60,22.1689653425877, 7,23,60
146,116362913.152249,3981.69601756575, 7,13,60,81445.6128017046,30,24,60
147,0.0,0.0, 1, 1,15,0.0, 1, 1,15
148,0.365228230191105,0.351131959718745, 6,15,60,0.380737798878425,23, 8,60
149,70629801.3759961,1631.31270950668, 7,13,60,47875.6394629687,23, 7,60
150,0.0,0.0, 1, 1,15,0.0, 1, 1,15
151,0.365386043247831,0.350103287334617, 6,15,60,0.380747006919896,23, 8,60
224,20.1280937730947,19.9999999999998, 9, 2,30,22.2359756173092, 7,16,30
225,37.0717823438507,15.9368122536228,23,14,30,62.1886533893188,19,11,45
258,20.2558306556586,19.9999999999999,28, 5,30,22.355166178686, 7,23,60
259,36.7399071524099,15.4163171134865,23,13,30,61.9093378402411,19,12,45
260,270265323.193933,0.0, 1,11,45,299554.429155247,27, 6,60
291,0.0,0.0, 1, 1,15,0.0, 1, 1,15
322,270265323.193939,0.0, 1,11,45,299554.42915525,27, 6,60
323,29395957.2963593,0.0, 1, 1,15,46270.8719277808,23, 6,60
324,0.0,0.0, 1, 1,15,0.0, 1, 1,15
325,29395957.2963603,0.0, 1, 1,15,46270.8719277829,23, 6,60
408,99979424.0343899,0.0, 1, 1,15,166632.37339065, 1, 7,15
461,60086700.4828711,0.0, 1, 1,15,100144.500804785, 1, 7,15
4,365,12
8,51754508.1336276,7056.14999095079, 1, 9,15,23520.499969836, 1, 1,15
9,31103976.2320883,4240.68027159901, 1, 9,15,14135.60090533, 1, 1,15
71,34379581.3735342,0.0, 1, 1,15,42054.5337902559, 1,20,15
93,20661807.4535763,0.0, 1, 1,15,25274.3822062095, 1,20,15
125,41742128.6820996,6007.79054146512, 1, 1,15,30038.9527073256, 1,19,15
137,25086629.6526778,3610.6260294585, 1, 1,15,18053.1301472925, 1,19,15
138,136897590.987601,0.0, 1, 1,15,206411.322334028,19,12,30
139,0.0,0.0, 1, 1,15,0.0, 1, 1,15
140,18.314546369311,17.092062786294,16, 8,30,19.9081637009965,29,15,30
141,19.715961247274,19.415110340808,17, 8,60,20.0768542714507,29,23,30
142,20.,19.9999999999998,17, 4,45,20.0000000000001, 2, 6,30
143,19.1572731846555,18.546031393147,16, 8,30,19.9540818504982,29,15,30
144,20.0037428470612,19.9999999999999,22, 4,45,20.2608309813678,29,20,45
145,19.8598520471676,19.707555170404,17, 8,60,20.1409909652355,29,20,60
146,195328642.022528,28418.9473851878,11,15,60,110919.62322543,31, 9,60
147,0.0,0.0, 1, 1,15,0.0, 1, 1,15
148,0.37608667702538,0.361327541910431,29,15,60,0.394232840331951,31,24,60
149,117399169.340717,17280.7035573702,11,15,60,66420.4268094044,31, 9,60
150,0.0,0.0, 1, 1,15,0.0, 1, 1,15
151,0.376091442779213,0.361328427870114,29,15,60,0.394230896299082,31,24,60
224,20.,19.9999999999998,17, 4,45,20.0000000000001, 2, 6,30
225,20.2888489325445,7.90419174159801,16,19,60,40.2069056034628,25, 4,30
258,20.0037428470612,19.9999999999999,22, 4,45,20.2608309813678,29,20,45
259,20.2768093185043,7.43656381192364,16,19,60,40.8315185144791,25, 4,15
260,580596888.735487,32491.0227990436,29,15,45,385407.094858528,18, 6,60
291,0.0,0.0, 1, 1,15,0.0, 1, 1,15
322,580596888.7355,32491.0227990455,29,15,45,385407.094858542,18, 6,60
323,94974722.72173,0.0, 7,20,15,72211.4702955377,17, 7,45
324,0.0,0.0, 1, 1,15,0.0, 1, 1,15
325,94974722.7217329,0.0, 7,20,15,72211.4702955378,17, 7,45
408,103312071.502203,0.0, 1, 1,15,166632.37339065, 1, 7,15
461,62089590.4989668,0.0, 1, 1,15,100144.500804785, 1, 7,15
End of Data
 Number of Records Written=         384
