Program Version,EnergyPlus, Version 8.4.0-09f5359d8a, YMD=2023.08.02 14:39
1,5,Environment Title[],Latitude[deg],Longitude[deg],Time Zone[],Elevation[m]
2,6,Day of Simulation[],Month[],Day of Month[],DST Indicator[1=yes 0=no],Hour[],StartMinute[],EndMinute[],DayType
3,3,Cumulative Day of Simulation[],Month[],Day of Month[],DST Indicator[1=yes 0=no],DayType  ! When Daily Report Variables Requested
4,2,Cumulative Days of Simulation[],Month[]  ! When Monthly Report Variables Requested
5,1,Cumulative Days of Simulation[] ! When Run Period Report Variables Requested
8,9,PERIM,Zone People Total Heating Energy [J] !Monthly  [Value,Min,Day,Hour,Minute,Max,Day,Hour,Minute]
9,9,CORE,Zone People Total Heating Energy [J] !Monthly  [Value,Min,Day,Hour,Minute,Max,Day,Hour,Minute]
71,9,PERIM,Zone Lights Electric Energy [J] !Monthly  [Value,Min,Day,Hour,Minute,Max,Day,Hour,Minute]
93,9,CORE,Zone Lights Electric Energy [J] !Monthly  [Value,Min,Day,Hour,Minute,Max,Day,Hour,Minute]
125,9,PERIM,Zone Electric Equipment Electric Energy [J] !Monthly  [Value,Min,Day,Hour,Minute,Max,Day,Hour,Minute]
137,9,CORE,Zone Electric Equipment Electric Energy [J] !Monthly  [Value,Min,Day,Hour,Minute,Max,Day,Hour,Minute]
138,9,PERIM,Zone Windows Total Transmitted Solar Radiation Energy [J] !Monthly  [Value,Min,Day,Hour,Minute,Max,Day,Hour,Minute]
139,9,CORE,Zone Windows Total Transmitted Solar Radiation Energy [J] !Monthly  [Value,Min,Day,Hour,Minute,Max,Day,Hour,Minute]
140,9,PERIM,Zone Mean Radiant Temperature [C] !Monthly [Value,Min,Day,Hour,Minute,Max,Day,Hour,Minute]
141,9,CORE,Zone Mean Radiant Temperature [C] !Monthly [Value,Min,Day,Hour,Minute,Max,Day,Hour,Minute]
142,9,PERIM,Zone Mean Air Temperature [C] !Monthly [Value,Min,Day,Hour,Minute,Max,Day,Hour,Minute]
143,9,PERIM,Zone Operative Temperature [C] !Monthly [Value,Min,Day,Hour,Minute,Max,Day,Hour,Minute]
144,9,CORE,Zone Mean Air Temperature [C] !Monthly [Value,Min,Day,Hour,Minute,Max,Day,Hour,Minute]
145,9,CORE,Zone Operative Temperature [C] !Monthly [Value,Min,Day,Hour,Minute,Max,Day,Hour,Minute]
146,9,PERIM,Zone Infiltration Total Heat Loss Energy [J] !Monthly  [Value,Min,Day,Hour,Minute,Max,Day,Hour,Minute]
147,9,PERIM,Zone Infiltration Total Heat Gain Energy [J] !Monthly  [Value,Min,Day,Hour,Minute,Max,Day,Hour,Minute]
148,9,PERIM,Zone Infiltration Air Change Rate [ach] !Monthly [Value,Min,Day,Hour,Minute,Max,Day,Hour,Minute]
149,9,CORE,Zone Infiltration Total Heat Loss Energy [J] !Monthly  [Value,Min,Day,Hour,Minute,Max,Day,Hour,Minute]
150,9,CORE,Zone Infiltration Total Heat Gain Energy [J] !Monthly  [Value,Min,Day,Hour,Minute,Max,Day,Hour,Minute]
151,9,CORE,Zone Infiltration Air Change Rate [ach] !Monthly [Value,Min,Day,Hour,Minute,Max,Day,Hour,Minute]
224,9,PERIM,Zone Air Temperature [C] !Monthly [Value,Min,Day,Hour,Minute,Max,Day,Hour,Minute]
225,9,PERIM,Zone Air Relative Humidity [%] !Monthly [Value,Min,Day,Hour,Minute,Max,Day,Hour,Minute]
258,9,CORE,Zone Air Temperature [C] !Monthly [Value,Min,Day,Hour,Minute,Max,Day,Hour,Minute]
259,9,CORE,Zone Air Relative Humidity [%] !Monthly [Value,Min,Day,Hour,Minute,Max,Day,Hour,Minute]
260,9,PERIM IDEAL LOADS AIR,Zone Ideal Loads Supply Air Total Heating Energy [J] !Monthly  [Value,Min,Day,Hour,Minute,Max,Day,Hour,Minute]
291,9,PERIM IDEAL LOADS AIR,Zone Ideal Loads Supply Air Total Cooling Energy [J] !Monthly  [Value,Min,Day,Hour,Minute,Max,Day,Hour,Minute]
322,9,PERIM IDEAL LOADS AIR,Zone Ideal Loads Zone Total Heating Energy [J] !Monthly  [Value,Min,Day,Hour,Minute,Max,Day,Hour,Minute]
323,9,CORE IDEAL LOADS AIR,Zone Ideal Loads Supply Air Total Heating Energy [J] !Monthly  [Value,Min,Day,Hour,Minute,Max,Day,Hour,Minute]
324,9,CORE IDEAL LOADS AIR,Zone Ideal Loads Supply Air Total Cooling Energy [J] !Monthly  [Value,Min,Day,Hour,Minute,Max,Day,Hour,Minute]
325,9,CORE IDEAL LOADS AIR,Zone Ideal Loads Zone Total Heating Energy [J] !Monthly  [Value,Min,Day,Hour,Minute,Max,Day,Hour,Minute]
408,9,DHW PERIM,Water Use Equipment Heating Energy [J] !Monthly  [Value,Min,Day,Hour,Minute,Max,Day,Hour,Minute]
461,9,DHW CORE,Water Use Equipment Heating Energy [J] !Monthly  [Value,Min,Day,Hour,Minute,Max,Day,Hour,Minute]
End of Data Dictionary
1,ARCHSIM,  37.57, 126.97,   9.00,  87.10
4,31, 1
8,51566344.1148966,7056.14998835476, 1,16,15,23520.4999611825, 1, 1,15
9,30990891.4428827,4240.6802740671, 1,16,15,14135.600913557, 1, 1,15
71,34526772.2290973,0.0, 1, 1,15,42054.5337747836, 1,20,15
93,20750267.8033748,0.0, 1, 1,15,25274.3822209193, 1,20,15
125,41814222.1532133,6007.79053925479, 1, 1,15,30038.952696274, 1,20,15
137,25129957.1796569,3610.6260315599, 1, 1,15,18053.1301577995, 1,20,15
138,165840170.111956,0.0, 1, 1,15,263031.3231746,31,12,30
139,0.0,0.0, 1, 1,15,0.0, 1, 1,15
140,18.2204591048128,17.0298101956811,23, 7,60,20.0503604178519, 8,15,15
141,19.7038253968186,19.4014842222173,15, 8,60,20.0862620067274, 8,23,60
142,20.,19.9999999999998,14,12,15,20.0000000000002,15, 5,15
143,19.1102295524064,18.5149050978405,23, 7,60,20.025180208926, 8,15,15
144,20.0021668524596,19.9999999999999,26, 7,15,20.2311377810065, 8,20,45
145,19.8529961246391,19.7007421111086,15, 8,60,20.1306909211787, 8,21,60
146,213552279.420919,25965.9857211761, 6,15,60,109626.006539303,23, 6,60
147,0.0,0.0, 1, 1,15,0.0, 1, 1,15
148,0.378772837108184,0.361627485652586, 6,15,60,0.39418335334413,23, 6,60
149,128309831.328996,15554.6040073781, 6,15,60,65965.9125678653,23, 6,60
150,0.0,0.0, 1, 1,15,0.0, 1, 1,15
151,0.378775878878369,0.361628528204858, 6,15,60,0.394181681446942,23, 6,60
224,20.,19.9999999999998,14,12,15,20.0000000000002,15, 5,15
225,17.6683173915767,6.84307244772609,14,19,60,34.9259927019219, 2,22,45
258,20.0021668524596,19.9999999999999,26, 7,15,20.2311377810065, 8,20,45
259,17.641486609088,6.25039042546015,14,19,60,35.3150928423516, 2,22,30
260,640324765.137951,18455.7575412269, 8,15,15,400110.280051402,23, 6,60
291,0.0,0.0, 1, 1,15,0.0, 1, 1,15
322,640324765.137964,18455.7575412278, 8,15,15,400110.280051402,23, 6,60
323,107669566.132779,0.0, 2,19,15,76028.1213701768,23, 6,60
324,0.0,0.0, 1, 1,15,0.0, 1, 1,15
325,107669566.132782,0.0, 2,19,15,76028.1213701768,23, 6,60
408,103312071.464194,0.0, 1, 1,15,166632.373329346, 1, 7,15
461,62089590.535103,0.0, 1, 1,15,100144.500863069, 1, 7,15
4,59, 2
8,46551773.5231725,7056.14998835476, 1, 9,15,23520.4999611825, 1, 1,15
9,27977181.3281123,4240.6802740671, 1, 9,15,14135.600913557, 1, 1,15
71,31204464.0608894,0.0, 1, 1,15,42054.5337747836, 1,20,15
93,18753591.6079222,0.0, 1, 1,15,25274.3822209193, 1,20,15
125,37776986.9108341,6007.79053925479, 1, 1,15,30038.952696274, 1,19,15
137,22703616.4864486,3610.6260315599, 1, 1,15,18053.1301577995, 1,19,15
138,191743359.359442,0.0, 1, 1,15,312496.901957835,18,13,30
139,0.0,0.0, 1, 1,15,0.0, 1, 1,15
140,18.6471310492766,17.2457766207582, 8, 6,60,21.0683956240521,27,16,15
141,19.8421098417872,19.5013571319118,10, 7,60,20.5338606361661,27,23,30
142,20.012114709333,19.9999999999998,20, 3,60,20.7424376625326,27,15,60
143,19.3296228793048,18.6228883103792, 8, 6,60,20.9051034389651,27,16,15
144,20.0263568324955,19.9999999999999, 8, 4,15,20.7494095072807,23,20,45
145,19.9342333371414,19.7506785659559,10, 7,60,20.602144687755,27,20,60
146,168587824.804875,15212.062858608,23,19,45,100724.472428672, 8, 6,60
147,0.0,0.0, 1, 1,15,0.0, 1, 1,15
148,0.374955664557404,0.358564052539596,24,15,60,0.390431897554053, 8, 6,60
149,101475399.393134,9675.57975185231,23,18,60,60504.808451949, 8, 6,60
150,0.0,0.0, 1, 1,15,0.0, 1, 1,15
151,0.374973096937233,0.358160829469503,23,15,60,0.390432523168679, 8, 6,60
224,20.012114709333,19.9999999999998,20, 3,60,20.7424376625326,27,15,60
225,18.4379888288418,6.45187242479697, 9,17,60,37.9641452199917, 3,22,15
258,20.0263568324955,19.9999999999999, 8, 4,15,20.7494095072807,23,20,45
259,18.4654438427575,6.11991478916994, 9,17,60,38.370623077602, 3,21,60
260,445729014.097308,0.0,23,13,45,363460.272394395, 8, 6,60
291,0.0,0.0, 1, 1,15,0.0, 1, 1,15
322,445729014.097317,0.0,23,13,45,363460.272394398, 8, 6,60
323,71274590.3332672,0.0, 2,20,15,66367.4974984647, 8, 6,60
324,0.0,0.0, 1, 1,15,0.0, 1, 1,15
325,71274590.3332693,0.0, 2,20,15,66367.4974984669, 8, 6,60
408,93314129.0644333,0.0, 1, 1,15,166632.373329346, 1, 7,15
461,56080920.4833188,0.0, 1, 1,15,100144.500863069, 1, 7,15
4,90, 3
8,51378180.1152071,7056.14998835476, 1, 9,15,23520.4999611825, 1, 1,15
9,30877806.6355743,4240.6802740671, 1, 9,15,14135.600913557, 1, 1,15
71,34673963.0973091,0.0, 1, 1,15,42054.5337747836, 1,20,15
93,20838728.141148,0.0, 1, 1,15,25274.3822209193, 1,20,15
125,41886315.6396843,6007.79053925479, 1, 1,15,30038.952696274, 1,19,15
137,25173284.6920356,3610.6260315599, 1, 1,15,18053.1301577995, 1,19,15
138,282282632.287492,0.0, 1, 1,15,359135.75605721,23,13,30
139,0.0,0.0, 1, 1,15,0.0, 1, 1,15
140,19.6376610061209,17.5904607767902, 8, 6,60,22.6893990258566,20,16,15
141,20.3203264403684,19.5902960701066, 8, 7,60,21.6550113411187,20,23,60
142,20.2500928676402,19.9999999999998, 7,24,15,22.6538734403047,30,18,30
143,19.9438769368805,18.7952303883951, 8, 6,60,22.564475868765,20,16,15
144,20.2791224818556,19.9999999999999, 8, 1,15,21.8192065986991,20,20,60
145,20.299724461112,19.7951480350533, 8, 7,60,21.7200277372768,20,22,60
146,138846173.915648,4358.13288886289,19,19,60,82356.0534068193, 8, 6,60
147,0.0,0.0, 1, 1,15,0.0, 1, 1,15
148,0.368021472576148,0.354387091953319,19,15,60,0.383441368092332, 8, 6,60
149,83736650.5475097,2057.7990707629,19,19,60,49784.8031282658, 8, 6,60
150,0.0,0.0, 1, 1,15,0.0, 1, 1,15
151,0.368060147922054,0.353003920356351,19,15,60,0.383435363540838, 8, 6,60
224,20.2500928676402,19.9999999999998, 7,24,15,22.6538734403047,30,18,30
225,23.3334180800845,8.72704025891536, 7,17,60,40.6355409312446,31,21,30
258,20.2791224818556,19.9999999999999, 8, 1,15,21.8192065986991,20,20,60
259,23.3100980304473,8.47150021669057, 7,17,60,38.9247776324627,31,17,60
260,244506226.640328,0.0, 1,12,60,298821.06986403, 8, 6,60
291,0.0,0.0, 1, 1,15,0.0, 1, 1,15
322,244506226.640333,0.0, 1,12,60,298821.069864039, 8, 6,60
323,26323411.4795225,0.0, 1,19,15,51543.1790579951, 8, 6,60
324,0.0,0.0, 1, 1,15,0.0, 1, 1,15
325,26323411.4795234,0.0, 1,19,15,51543.1790579956, 8, 6,60
408,103312071.464194,0.0, 1, 1,15,166632.373329346, 1, 7,15
461,62089590.535103,0.0, 1, 1,15,100144.500863069, 1, 7,15
4,120, 4
8,50145705.9172411,7056.14998835476, 1,15,15,23520.4999611825, 1, 1,15
9,30137101.1477039,4240.6802740671, 1,15,15,14135.600913557, 1, 1,15
71,33223081.682079,0.0, 1, 1,15,42054.5337747836, 1,19,15
93,19966761.9545263,0.0, 1, 1,15,25274.3822209193, 1,19,15
125,40372352.4237922,6007.79053925479, 1, 1,15,30038.952696274, 1,19,15
137,24263406.9320825,3610.6260315599, 1, 1,15,18053.1301577995, 1,19,15
138,320897202.767674,0.0, 1, 1,15,379911.35095617,19,12,30
139,0.0,0.0, 1, 1,15,0.0, 1, 1,15
140,22.3171468516548,18.1155858431906, 1, 7,15,27.9530751466111,19,19,30
141,22.6770411218903,19.9018850336737, 2, 8,45,26.7781475279134,13,22,60
142,22.2765493082637,19.9999999999999, 1, 2,45,28.3384465276856,19,19,30
143,22.2968480799592,19.0577929215953, 1, 7,15,28.1457608371484,19,19,30
144,22.5896753797819,20., 2, 8,30,26.9251322152729,13,21,60
145,22.6333582508361,19.9509425168368, 2, 8,45,26.8285145505931,13,21,60
146,100003804.153745,0.0, 8,15,60,66460.8720653362, 1, 1,60
147,19933.801288499,0.0, 1, 1,15,6245.20038842429,19,19,60
148,0.362259053606486,0.350711691481458,19,12,60,0.372529043171902, 1, 4,60
149,62125496.8157006,0.0, 7,19,60,39908.0317704986, 1, 1,60
150,80392.0106797886,0.0, 1, 1,15,9112.54942181498,19,19,60
151,0.362653231435387,0.348795419869121,19,12,60,0.372564123278166, 1, 2,60
224,22.2765493082637,19.9999999999999, 1, 2,45,28.3384465276856,19,19,30
225,34.6253269830082,15.9541501551002,18,18,15,62.8950178353183,20,23,45
258,22.5896753797819,20., 2, 8,30,26.9251322152729,13,21,60
259,33.7780900194575,17.4784152336668,18,18,15,56.4009140686583,25, 1,60
260,47102758.6321133,0.0, 1,13,30,215498.427767942, 1, 7,15
291,0.0,0.0, 1, 1,15,0.0, 1, 1,15
322,47102758.6321147,0.0, 1,13,30,215498.427767948, 1, 7,15
323,1294857.43557138,0.0, 1, 1,15,23194.8916144165, 2, 6,60
324,0.0,0.0, 1, 1,15,0.0, 1, 1,15
325,1294857.43557143,0.0, 1, 1,15,23194.8916144183, 2, 6,60
408,99979423.9976071,0.0, 1, 1,15,166632.373329346, 1, 6,15
461,60086700.5178416,0.0, 1, 1,15,100144.500863069, 1, 6,15
4,151, 5
8,51378180.1152071,7056.14998835476, 1, 8,15,23520.4999611825, 1, 1,15
9,30877806.6355743,4240.6802740671, 1, 8,15,14135.600913557, 1, 1,15
71,34673963.0973091,0.0, 1, 1,15,42054.5337747836, 1,19,15
93,20838728.141148,0.0, 1, 1,15,25274.3822209193, 1,19,15
125,41886315.6396844,6007.79053925479, 1, 1,15,30038.952696274, 1,18,15
137,25173284.6920356,3610.6260315599, 1, 1,15,18053.1301577995, 1,18,15
138,393850624.856788,0.0, 1, 1,15,567109.466759454,30,18,30
139,0.0,0.0, 1, 1,15,0.0, 1, 1,15
140,27.5048233488557,20.786804705409, 3, 7,15,36.4237881775418,25,19,15
141,27.6646464258774,22.9441639800959, 4,11,45,34.084647211788,26,22,60
142,27.2426530698538,20.409096166456, 3, 6,60,36.711456930718,25,19,30
143,27.3737382093548,20.6028347757893, 3, 6,60,36.5667900135274,25,19,30
144,27.5604620886267,22.7113228669063, 4,11,30,34.1706827708535,26,21,60
145,27.612554257252,22.8280848899662, 4,11,30,34.1097248004789,26,21,60
146,106866565.948193,0.0,11,18,60,69476.9735412365,17, 5,60
147,1614.29997482886,0.0, 1, 1,15,1242.39172683093,11,18,60
148,0.361311634970821,0.352073931924942,23,15,60,0.368104494070956,18,21,52
149,66408932.7026607,0.0, 8,18,60,45607.1715889087,17, 5,60
150,48529.468550692,0.0, 1, 1,15,6385.5800203895,11,18,60
151,0.361711761297369,0.349589046056538,23,15,60,0.370224625445702,18,24,60
224,27.2426530698538,20.409096166456, 3, 6,60,36.711456930718,25,19,30
225,39.4902412097028,18.8249018040562, 8,18, 7,64.5214499753908,28, 5,60
258,27.5604620886267,22.7113228669063, 4,11,30,34.1706827708535,26,21,60
259,38.3640439148289,21.0232447541013,17,16,15,59.9981028171613,28,15,30
260,0.0,0.0, 1, 1,15,0.0, 1, 1,15
291,0.0,0.0, 1, 1,15,0.0, 1, 1,15
322,0.0,0.0, 1, 1,15,0.0, 1, 1,15
323,0.0,0.0, 1, 1,15,0.0, 1, 1,15
324,0.0,0.0, 1, 1,15,0.0, 1, 1,15
325,0.0,0.0, 1, 1,15,0.0, 1, 1,15
408,103312071.464194,0.0, 1, 1,15,166632.373329346, 1, 6,15
461,62089590.535103,0.0, 1, 1,15,100144.500863069, 1, 6,15
4,181, 6
8,49769377.9178623,7056.14998835476, 1, 8,15,23520.4999611825, 1, 1,15
9,29910931.533087,4240.6802740671, 1, 8,15,14135.600913557, 1, 1,15
71,33517463.4185025,0.0, 1, 1,15,42054.5337747836, 1,19,15
93,20143682.6300727,0.0, 1, 1,15,25274.3822209193, 1,19,15
125,40516539.3967342,6007.79053925479, 1, 1,15,30038.952696274, 1,18,15
137,24350061.9568399,3610.6260315599, 1, 1,15,18053.1301577995, 1,18,15
138,422974534.623915,0.0, 1, 1,15,617751.74830266,23,18,30
139,0.0,0.0, 1, 1,15,0.0, 1, 1,15
140,33.1002105084802,27.1139122001648, 1, 6,15,39.7393812949763,10,19,30
141,33.0229948790379,28.6025130891788, 1,11,30,37.1827677202792,11,22,60
142,32.8008110573953,26.6253273276837, 1, 5,60,39.8980859098579,10,19,30
143,32.9505107829378,26.8842054185395, 1, 6,15,39.8187336024171,10,19,30
144,32.8758473560768,28.3586183964577, 1, 9,45,37.1863675157519,11,22,45
145,32.9494211175573,28.4866801632671, 1,11,30,37.1831643560551,11,22,60
146,116939925.053628,817.459783120888, 1,15,60,61626.2666165567, 1, 4,60
147,0.0,0.0, 1, 1,15,0.0, 1, 1,15
148,0.361474750372987,0.353847959613077,15,15,60,0.368919543325231,12, 3,22
149,71131324.0830437,0.0, 1,15,60,42492.8054738869,12, 7,15
150,1706.19984141848,0.0, 1, 1,15,1706.19984141848, 1,15,60
151,0.361576531742215,0.352558671131937,15,15,60,0.371465473141738,12, 6,60
224,32.8008110573953,26.6253273276837, 1, 5,60,39.8980859098579,10,19,30
225,41.6729904891461,18.0799210791216, 1,15,15,68.0906948346253,14, 5,60
258,32.8758473560768,28.3586183964577, 1, 9,45,37.1863675157519,11,22,45
259,41.1335047547217,19.2883750002385, 1,15,15,62.5391144448243,14, 5,60
260,0.0,0.0, 1, 1,15,0.0, 1, 1,15
291,0.0,0.0, 1, 1,15,0.0, 1, 1,15
322,0.0,0.0, 1, 1,15,0.0, 1, 1,15
323,0.0,0.0, 1, 1,15,0.0, 1, 1,15
324,0.0,0.0, 1, 1,15,0.0, 1, 1,15
325,0.0,0.0, 1, 1,15,0.0, 1, 1,15
408,99979423.9976071,0.0, 1, 1,15,166632.373329346, 1, 6,15
461,60086700.5178416,0.0, 1, 1,15,100144.500863069, 1, 6,15
4,212, 7
8,51754508.114586,7056.14998835476, 1,15,15,23520.4999611825, 1, 1,15
9,31103976.2501912,4240.6802740671, 1,15,15,14135.600913557, 1, 1,15
71,34379581.3608856,0.0, 1, 1,15,42054.5337747836, 1,19,15
93,20661807.4656016,0.0, 1, 1,15,25274.3822209193, 1,19,15
125,41742128.6667423,6007.79053925479, 1, 1,15,30038.952696274, 1,19,15
137,25086629.6672781,3610.6260315599, 1, 1,15,18053.1301577995, 1,19,15
138,351774985.693235,0.0, 1, 1,15,465687.492694573, 9,18,30
139,0.0,0.0, 1, 1,15,0.0, 1, 1,15
140,26.6302914104825,24.2454707302943,18, 2,15,34.0618444014528, 1,14,15
141,25.7300585041425,24.547712827834,17,22,15,33.0799637437508, 1, 1,15
142,25.6977419840157,23.9420876374179, 2,14,15,33.8399306702883, 1,13,60
143,26.1640166972492,24.1657281151454,17,21,60,33.8892026060282, 1,13,60
144,25.3548005761521,23.9616587230379, 3,14,15,32.7451949014484, 1, 1,15
145,25.5424295401473,24.2773124144873,17,21,60,32.9125793225996, 1, 1,15
146,25006908.7012714,0.0, 1,14, 2,42471.7411300023, 1, 1,15
147,22933460.3484183,0.0, 1, 1,15,50586.9551997838,30,14,45
148,0.350445204521381,0.341470284446869,20,15,60,0.36051947665116, 1, 1,60
149,13493977.4952966,0.0, 1,14, 2,28570.0421459786, 1, 3,60
150,13590978.9985362,0.0, 1, 1,15,29640.2470114867,31,15,60
151,0.35004351016314,0.341464913390899,20,15,60,0.362308464687177, 1, 3,60
224,25.6977419840157,23.3565021586063, 2,14, 5,33.8399306702883, 1,13,60
225,72.5182660935067,49.5429186143081,12,13,60,91.1962240948152, 2,14, 3
258,25.3548005761521,23.5808493895953,10,14, 3,32.7451949014484, 1, 1,15
259,74.0699439398552,53.3005288743343, 1, 1,15,90.6460396460997, 2,14, 3
260,0.0,0.0, 1, 1,15,0.0, 1, 1,15
291,376040891.705053,0.0, 1, 1,15,1238130.36798258, 1,14,45
322,3.594585574650079E-006,0.0, 1, 1,15,1.109128788812086E-007, 1,16,15
323,0.0,0.0, 1, 1,15,0.0, 1, 1,15
324,131434545.73729,0.0, 1, 1,15,719680.191330046, 1,14,45
325,7.538135933641983E-007,0.0, 1, 1,15,3.458353603491560E-008, 1,16,15
408,103312071.464194,0.0, 1, 1,15,166632.373329346, 1, 6,15
461,62089590.535103,0.0, 1, 1,15,100144.500863069, 1, 6,15
4,243, 8
8,51378180.1152071,7056.14998835476, 1, 8,15,23520.4999611825, 1, 1,15
9,30877806.6355743,4240.6802740671, 1, 8,15,14135.600913557, 1, 1,15
71,34673963.0973091,0.0, 1, 1,15,42054.5337747836, 1,19,15
93,20838728.141148,0.0, 1, 1,15,25274.3822209193, 1,19,15
125,41886315.6396844,6007.79053925479, 1, 1,15,30038.952696274, 1,18,15
137,25173284.6920356,3610.6260315599, 1, 1,15,18053.1301577995, 1,18,15
138,346793852.665134,0.0, 1, 1,15,378124.414016097, 6,18,30
139,0.0,0.0, 1, 1,15,0.0, 1, 1,15
140,26.5560472527277,23.169636813399,26, 6,60,30.910533214653, 7,14,15
141,25.5851703084095,24.4031784142392,26, 8,15,27.4725875642915, 7,14,15
142,25.6344442726504,22.9724030617997,26, 6,60,31.0105968307421, 7,13,60
143,26.095245762689,23.0710199375994,26, 6,60,30.8908814074886, 7,13,60
144,25.2300359599392,23.9504905882516,25,14,15,27.7449453938904, 7,13,60
145,25.4076031341743,24.3389286747015,26,21,60,27.5747105979854, 7,13,60
146,24567892.9853836,0.0, 1,14, 1,29842.2982821791,28, 6,60
147,24584146.9831822,0.0, 1, 1,15,51915.6325060441, 7,16,15
148,0.3497998212889,0.339050863168094, 7,15,60,0.356899700179217,25,13,60
149,13107571.7859433,0.0, 1,13,15,19965.1537766151,26, 6,60
150,14758727.3771093,0.0, 1, 1,15,30860.8275978427, 7,15,60
151,0.349328670793443,0.339044098402364, 7,15,60,0.357832676274559,28, 6,60
224,25.6344442726504,22.9724030617997,26, 6,60,31.0105968307421, 7,13,60
225,71.5041527090131,49.0607410580475,30,13,60,92.8038347858403, 2, 5,60
258,25.2300359599392,23.5609769795925, 8,14, 3,27.7449453938904, 7,13,60
259,73.3004578904705,55.4600644229884,27,22,30,93.5744303133215, 2, 5,60
260,0.0,0.0, 1, 1,15,0.0, 1, 1,15
291,373473870.974656,0.0, 1, 1,15,809796.539236173, 7,14,45
322,2.971591147694529E-006,0.0, 1, 1,15,7.029257176327519E-008, 6,15,45
323,0.0,0.0, 1, 1,15,0.0, 1, 1,15
324,127756792.59639,0.0, 1, 1,15,289302.199360117, 7,14, 1
325,6.533138975261078E-007,0.0, 1, 1,15,2.268905063829152E-008, 3,14,60
408,103312071.464194,0.0, 1, 1,15,166632.373329346, 1, 6,15
461,62089590.535103,0.0, 1, 1,15,100144.500863069, 1, 6,15
4,273, 9
8,49957541.9175517,7056.14998835476, 1, 8,15,23520.4999611825, 1, 1,15
9,30024016.3403954,4240.6802740671, 1, 8,15,14135.600913557, 1, 1,15
71,33370272.5502908,0.0, 1, 1,15,42054.5337747836, 1,19,15
93,20055222.2922995,0.0, 1, 1,15,25274.3822209193, 1,19,15
125,40444445.9102632,6007.79053925479, 1, 1,15,30038.952696274, 1,18,15
137,24306734.4444612,3610.6260315599, 1, 1,15,18053.1301577995, 1,18,15
138,262953111.617935,0.0, 1, 1,15,332270.15547999,12,12,30
139,0.0,0.0, 1, 1,15,0.0, 1, 1,15
140,25.0058746000287,22.3544682816759,30, 7,30,28.6722761548214, 8,14,15
141,24.8097538023559,23.8440783038426,30, 8,60,26.0479729314892, 8,14,15
142,24.407252535656,22.1167101721893,30, 7,30,28.6264784101508, 8,13,60
143,24.7065635678424,22.2355892269326,30, 7,30,28.5855895225783, 8,13,60
144,24.5908553684101,23.7451765273952,30, 7,60,26.2398686750691, 8,13,60
145,24.700304585383,23.8090553456518,30, 7,60,26.117470496021, 8,13,60
146,43495146.249568,0.0, 1,14, 1,47659.556613959,15,24,60
147,2711804.09167307,0.0, 1, 1,15,27516.771272227,20,18,60
148,0.353251420784379,0.342508072461993, 6,15,60,0.361312399348133,30,24,60
149,27210908.8373365,0.0, 1,12,60,29298.3155045748,15,24,60
150,1612764.02316764,0.0, 1, 1,15,17094.2323467286,20,18,60
151,0.353474325607242,0.342512474109044, 6,15,60,0.362504789579474,30,24,60
224,24.407252535656,22.1167101721893,30, 7,30,28.6264784101508, 8,13,60
225,63.1992508797805,35.229377056003,16,13,60,89.0493664733785, 9, 6,60
258,24.5908553684101,23.6247169715585, 1,14, 2,26.2398686750691, 8,13,60
259,62.5004011633145,37.6614890368957,16,22,30,85.9282222134804, 9, 6,60
260,0.0,0.0, 1, 1,15,0.0, 1, 1,15
291,182688816.287602,0.0, 1, 1,15,521123.813065949, 7,14,45
322,3.566942385901939E-006,0.0, 1, 1,15,4.962430466548540E-008, 7,14,60
323,0.0,0.0, 1, 1,15,0.0, 1, 1,15
324,60666737.5605959,0.0, 1, 1,15,167968.217111365, 8,14,45
325,1.186338869680575E-006,0.0, 1, 1,15,1.129336624217103E-008, 6,15,45
408,99979423.9976071,0.0, 1, 1,15,166632.373329346, 1, 6,15
461,60086700.5178416,0.0, 1, 1,15,100144.500863069, 1, 6,15
4,304,10
8,51566344.1148966,7056.14998835476, 1,15,15,23520.4999611825, 1, 1,15
9,30990891.4428827,4240.6802740671, 1,15,15,14135.600913557, 1, 1,15
71,34526772.2290973,0.0, 1, 1,15,42054.5337747836, 1,19,15
93,20750267.8033748,0.0, 1, 1,15,25274.3822209193, 1,19,15
125,41814222.1532133,6007.79053925479, 1, 1,15,30038.952696274, 1,19,15
137,25129957.1796569,3610.6260315599, 1, 1,15,18053.1301577995, 1,19,15
138,216057366.697311,0.0, 1, 1,15,317532.773485102,10,12,30
139,0.0,0.0, 1, 1,15,0.0, 1, 1,15
140,22.6441164330359,18.4922493066165,24, 7,30,27.779397693059, 7,16,30
141,23.2994451643552,20.3024391332526,25,10,15,27.0926016949121, 7,22,60
142,22.6453819441157,19.9999999999999,25, 8,15,27.6165873545109, 7,16,15
143,22.6447491885758,19.2461246533082,24, 7,30,27.6959461477126, 7,16,15
144,23.3046472548879,20.111798908172,25,11,30,27.3837897019218, 7,22,60
145,23.3020462096216,20.2134262256708,25,11,30,27.238195698417, 7,22,60
146,81875935.5147104,0.0,14,18,45,55713.1332987004,24, 3,60
147,32687.5951243904,0.0, 1, 1,15,12009.0340341437,14,18,60
148,0.358924586533016,0.351034537453,22,15,60,0.369441177290841,24, 6,60
149,53377649.8544939,0.0,14,18,30,35960.7436827711,15,24,60
150,25044.1110543572,0.0, 1, 1,15,8001.35772325115,14,18,60
151,0.359728937773085,0.349415248613005,22,15,60,0.370220177803737,24, 6,60
224,22.6453819441157,19.9999999999999,25, 8,15,27.6165873545109, 7,16,15
225,43.6812638592974,19.0421147942985,19,15,45,70.5991692181714,28,23,45
258,23.3046472548879,20.111798908172,25,11,30,27.3837897019218, 7,22,60
259,42.1709657742525,19.3780850589786,19,15,30,66.1113839543943,28,24,30
260,24758954.2788193,0.0, 1, 1,15,152278.177551028,24, 6,60
291,0.0,0.0, 1, 1,15,0.0, 1, 1,15
322,24758954.27882,0.0, 1, 1,15,152278.177551039,24, 6,60
323,0.0,0.0, 1, 1,15,0.0, 1, 1,15
324,0.0,0.0, 1, 1,15,0.0, 1, 1,15
325,0.0,0.0, 1, 1,15,0.0, 1, 1,15
408,103312071.464194,0.0, 1, 1,15,166632.373329346, 1, 6,15
461,62089590.535103,0.0, 1, 1,15,100144.500863069, 1, 6,15
4,334,11
8,49769377.9178622,7056.14998835476, 1, 9,15,23520.4999611825, 1, 1,15
9,29910931.5330869,4240.6802740671, 1, 9,15,14135.600913557, 1, 1,15
71,33517463.4185025,0.0, 1, 1,15,42054.5337747836, 1,20,15
93,20143682.6300727,0.0, 1, 1,15,25274.3822209193, 1,20,15
125,40516539.3967343,6007.79053925479, 1, 1,15,30038.952696274, 1,19,15
137,24350061.9568399,3610.6260315599, 1, 1,15,18053.1301577995, 1,19,15
138,161730532.985356,0.0, 1, 1,15,243542.467072614,15,12,30
139,0.0,0.0, 1, 1,15,0.0, 1, 1,15
140,19.2188499977163,17.4541662400047,27, 7,60,22.2681852017672, 7,16,30
141,20.1531840598582,19.5446956598534,27, 7,60,21.9568495485057, 7,24,15
142,20.1323147286242,19.9999999999998,23, 4,15,22.2836930965958, 7,16,30
143,19.6755823631703,18.7270831200023,27, 7,60,22.2759391491815, 7,16,30
144,20.2510926489736,19.9999999999999,28, 1,30,22.3226528201533, 7,23,60
145,20.2021383544159,19.7723478299267,27, 7,60,22.1388905195773, 7,23,60
146,117929221.197294,4404.23751092308, 7,13,60,82034.8743049061,30,24,60
147,0.0,0.0, 1, 1,15,0.0, 1, 1,15
148,0.365462787851698,0.35137002419157, 6,15,60,0.380986770373278,23, 8,60
149,71514454.4125138,1803.50315960242, 7,13,60,48221.1908309558,23, 7,60
150,0.0,0.0, 1, 1,15,0.0, 1, 1,15
151,0.365609907749887,0.350274517543597, 6,15,60,0.38099646425613,23, 8,60
224,20.1323147286242,19.9999999999998,23, 4,15,22.2836930965958, 7,16,30
225,37.063260130047,15.9649683594479,23,14,30,62.1671325582726,19,11,45
258,20.2510926489736,19.9999999999999,28, 1,30,22.3226528201533, 7,23,60
259,36.7492039824608,15.4204247905823,23,13,30,61.9416625255063,19,12,45
260,277464266.8636,0.0, 1,11,60,302354.07412876,27, 6,60
291,0.0,0.0, 1, 1,15,0.0, 1, 1,15
322,277464266.863607,0.0, 1,11,60,302354.07412876,27, 6,60
323,29838417.6712398,0.0, 1, 1,15,47053.3677269213,23, 6,60
324,0.0,0.0, 1, 1,15,0.0, 1, 1,15
325,29838417.6712409,0.0, 1, 1,15,47053.3677269239,23, 6,60
408,99979423.9976071,0.0, 1, 1,15,166632.373329346, 1, 7,15
461,60086700.5178416,0.0, 1, 1,15,100144.500863069, 1, 7,15
4,365,12
8,51754508.114586,7056.14998835476, 1, 9,15,23520.4999611825, 1, 1,15
9,31103976.2501912,4240.6802740671, 1, 9,15,14135.600913557, 1, 1,15
71,34379581.3608856,0.0, 1, 1,15,42054.5337747836, 1,20,15
93,20661807.4656016,0.0, 1, 1,15,25274.3822209193, 1,20,15
125,41742128.6667423,6007.79053925479, 1, 1,15,30038.952696274, 1,19,15
137,25086629.6672781,3610.6260315599, 1, 1,15,18053.1301577995, 1,19,15
138,150636723.513264,0.0, 1, 1,15,231803.194450335,19,12,30
139,0.0,0.0, 1, 1,15,0.0, 1, 1,15
140,18.307453878907,17.0398682241839,16, 8,30,20.0382330441328,29,15,30
141,19.7201050834585,19.4068497834202,16, 8,60,20.0994559506113,29,23,15
142,20.,19.9999999999998,16, 7,60,20.0000000000002,20, 5,45
143,19.1537269394535,18.5199341120919,16, 8,30,20.0191165220664,29,15,30
144,20.0040748741227,19.9999999999999,18, 5,15,20.2817956810645,29,20,45
145,19.8620899787906,19.7034248917101,16, 8,60,20.165560269489,29,20,60
146,196999584.081429,28962.2892086001,11,15,60,111557.989978185,31, 9,60
147,0.0,0.0, 1, 1,15,0.0, 1, 1,15
148,0.376330167741925,0.361552404628068,29,15,60,0.394500350449124,31,24,60
149,118406797.759804,17595.5208660566,11,15,60,66789.1795583456,31, 9,60
150,0.0,0.0, 1, 1,15,0.0, 1, 1,15
151,0.376335352429846,0.361553115753596,29,15,60,0.394498406113212,31,24,60
224,20.,19.9999999999998,16, 7,60,20.0000000000002,20, 5,45
225,20.2858564377614,7.89972766137478,16,19,60,40.1946919443311,25, 4,30
258,20.0040748741227,19.9999999999999,18, 5,15,20.2817956810645,29,20,45
259,20.2740481082555,7.43332803165936,16,19,60,40.8291897528709,25, 4,15
260,589622299.354482,25110.1220517069,29,15,30,392875.498629404,18, 6,60
291,0.0,0.0, 1, 1,15,0.0, 1, 1,15
322,589622299.354494,25110.1220517075,29,15,30,392875.498629423,18, 6,60
323,95669720.8475681,0.0, 7,20,15,72954.9349825677,17, 7,60
324,0.0,0.0, 1, 1,15,0.0, 1, 1,15
325,95669720.847571,0.0, 7,20,15,72954.9349825677,17, 7,60
408,103312071.464194,0.0, 1, 1,15,166632.373329346, 1, 7,15
461,62089590.535103,0.0, 1, 1,15,100144.500863069, 1, 7,15
End of Data
 Number of Records Written=         384
