Program Version,EnergyPlus, Version 8.4.0-09f5359d8a, YMD=2023.08.02 14:39
1,5,Environment Title[],Latitude[deg],Longitude[deg],Time Zone[],Elevation[m]
2,6,Day of Simulation[],Month[],Day of Month[],DST Indicator[1=yes 0=no],Hour[],StartMinute[],EndMinute[],DayType
3,3,Cumulative Day of Simulation[],Month[],Day of Month[],DST Indicator[1=yes 0=no],DayType  ! When Daily Report Variables Requested
4,2,Cumulative Days of Simulation[],Month[]  ! When Monthly Report Variables Requested
5,1,Cumulative Days of Simulation[] ! When Run Period Report Variables Requested
8,9,PERIM,Zone People Total Heating Energy [J] !Monthly  [Value,Min,Day,Hour,Minute,Max,Day,Hour,Minute]
9,9,CORE,Zone People Total Heating Energy [J] !Monthly  [Value,Min,Day,Hour,Minute,Max,Day,Hour,Minute]
71,9,PERIM,Zone Lights Electric Energy [J] !Monthly  [Value,Min,Day,Hour,Minute,Max,Day,Hour,Minute]
93,9,CORE,Zone Lights Electric Energy [J] !Monthly  [Value,Min,Day,Hour,Minute,Max,Day,Hour,Minute]
125,9,PERIM,Zone Electric Equipment Electric Energy [J] !Monthly  [Value,Min,Day,Hour,Minute,Max,Day,Hour,Minute]
137,9,CORE,Zone Electric Equipment Electric Energy [J] !Monthly  [Value,Min,Day,Hour,Minute,Max,Day,Hour,Minute]
138,9,PERIM,Zone Windows Total Transmitted Solar Radiation Energy [J] !Monthly  [Value,Min,Day,Hour,Minute,Max,Day,Hour,Minute]
139,9,CORE,Zone Windows Total Transmitted Solar Radiation Energy [J] !Monthly  [Value,Min,Day,Hour,Minute,Max,Day,Hour,Minute]
140,9,PERIM,Zone Mean Radiant Temperature [C] !Monthly [Value,Min,Day,Hour,Minute,Max,Day,Hour,Minute]
141,9,CORE,Zone Mean Radiant Temperature [C] !Monthly [Value,Min,Day,Hour,Minute,Max,Day,Hour,Minute]
142,9,PERIM,Zone Mean Air Temperature [C] !Monthly [Value,Min,Day,Hour,Minute,Max,Day,Hour,Minute]
143,9,PERIM,Zone Operative Temperature [C] !Monthly [Value,Min,Day,Hour,Minute,Max,Day,Hour,Minute]
144,9,CORE,Zone Mean Air Temperature [C] !Monthly [Value,Min,Day,Hour,Minute,Max,Day,Hour,Minute]
145,9,CORE,Zone Operative Temperature [C] !Monthly [Value,Min,Day,Hour,Minute,Max,Day,Hour,Minute]
146,9,PERIM,Zone Infiltration Total Heat Loss Energy [J] !Monthly  [Value,Min,Day,Hour,Minute,Max,Day,Hour,Minute]
147,9,PERIM,Zone Infiltration Total Heat Gain Energy [J] !Monthly  [Value,Min,Day,Hour,Minute,Max,Day,Hour,Minute]
148,9,PERIM,Zone Infiltration Air Change Rate [ach] !Monthly [Value,Min,Day,Hour,Minute,Max,Day,Hour,Minute]
149,9,CORE,Zone Infiltration Total Heat Loss Energy [J] !Monthly  [Value,Min,Day,Hour,Minute,Max,Day,Hour,Minute]
150,9,CORE,Zone Infiltration Total Heat Gain Energy [J] !Monthly  [Value,Min,Day,Hour,Minute,Max,Day,Hour,Minute]
151,9,CORE,Zone Infiltration Air Change Rate [ach] !Monthly [Value,Min,Day,Hour,Minute,Max,Day,Hour,Minute]
224,9,PERIM,Zone Air Temperature [C] !Monthly [Value,Min,Day,Hour,Minute,Max,Day,Hour,Minute]
225,9,PERIM,Zone Air Relative Humidity [%] !Monthly [Value,Min,Day,Hour,Minute,Max,Day,Hour,Minute]
258,9,CORE,Zone Air Temperature [C] !Monthly [Value,Min,Day,Hour,Minute,Max,Day,Hour,Minute]
259,9,CORE,Zone Air Relative Humidity [%] !Monthly [Value,Min,Day,Hour,Minute,Max,Day,Hour,Minute]
260,9,PERIM IDEAL LOADS AIR,Zone Ideal Loads Supply Air Total Heating Energy [J] !Monthly  [Value,Min,Day,Hour,Minute,Max,Day,Hour,Minute]
291,9,PERIM IDEAL LOADS AIR,Zone Ideal Loads Supply Air Total Cooling Energy [J] !Monthly  [Value,Min,Day,Hour,Minute,Max,Day,Hour,Minute]
322,9,PERIM IDEAL LOADS AIR,Zone Ideal Loads Zone Total Heating Energy [J] !Monthly  [Value,Min,Day,Hour,Minute,Max,Day,Hour,Minute]
323,9,CORE IDEAL LOADS AIR,Zone Ideal Loads Supply Air Total Heating Energy [J] !Monthly  [Value,Min,Day,Hour,Minute,Max,Day,Hour,Minute]
324,9,CORE IDEAL LOADS AIR,Zone Ideal Loads Supply Air Total Cooling Energy [J] !Monthly  [Value,Min,Day,Hour,Minute,Max,Day,Hour,Minute]
325,9,CORE IDEAL LOADS AIR,Zone Ideal Loads Zone Total Heating Energy [J] !Monthly  [Value,Min,Day,Hour,Minute,Max,Day,Hour,Minute]
408,9,DHW PERIM,Water Use Equipment Heating Energy [J] !Monthly  [Value,Min,Day,Hour,Minute,Max,Day,Hour,Minute]
461,9,DHW CORE,Water Use Equipment Heating Energy [J] !Monthly  [Value,Min,Day,Hour,Minute,Max,Day,Hour,Minute]
End of Data Dictionary
1,ARCHSIM,  37.57, 126.97,   9.00,  87.10
4,31, 1
8,51566344.114032,7056.14998823653, 1,16,15,23520.4999607884, 1, 1,15
9,30990891.4490655,4240.68027491321, 1,16,15,14135.6009163774, 1, 1,15
71,34526772.2285188,0.0, 1, 1,15,42054.5337740789, 1,20,15
93,20750267.8075148,0.0, 1, 1,15,25274.3822259621, 1,20,15
125,41814222.1525129,6007.79053915413, 1, 1,15,30038.9526957707, 1,20,15
137,25129957.184671,3610.6260322803, 1, 1,15,18053.1301614015, 1,20,15
138,162143754.592808,0.0, 1, 1,15,256800.325769393,31,12,30
139,0.0,0.0, 1, 1,15,0.0, 1, 1,15
140,18.1991459415311,17.0205754925872,23, 7,60,20.000789998239, 8,15,15
141,19.6972601524403,19.3994096511,15, 8,60,20.0689573558307, 8,23,60
142,20.,19.9999999999997,27, 6,60,20.0000000000002,23, 3,45
143,19.0995729707656,18.5102877462936,23, 7,60,20.0003949991195, 8,15,15
144,20.0017077836603,19.9999999999999,15, 7,15,20.2096416312237, 8,20,45
145,19.8494839680503,19.69970482555,15, 8,60,20.1120231609761, 8,21,60
146,214626708.159564,26291.1039112977, 6,15,60,110018.314867257,23, 6,60
147,0.0,0.0, 1, 1,15,0.0, 1, 1,15
148,0.37892940067247,0.361770137891989, 6,15,60,0.394352876870012,23, 6,60
149,128951230.799278,15750.8070281311, 6,15,60,66201.1685728254,23, 6,60
150,0.0,0.0, 1, 1,15,0.0, 1, 1,15
151,0.378931866237373,0.361771152217091, 6,15,60,0.394351201424412,23, 6,60
224,20.,19.9999999999997,27, 6,60,20.0000000000002,23, 3,45
225,17.6669175195845,6.85213901689906,14,19,60,34.9167771853335, 2,22,45
258,20.0017077836603,19.9999999999999,15, 7,15,20.2096416312237, 8,20,45
259,17.6399178726736,6.25187722416087,14,19,60,35.3074744516504, 2,22,30
260,647479033.53927,22403.5772918652, 8,14,60,401752.255262866,23, 6,60
291,0.0,0.0, 1, 1,15,0.0, 1, 1,15
322,647479033.539284,22403.5772918659, 8,14,60,401752.255262866,23, 6,60
323,109048593.187028,0.0, 2,20,15,76422.1222161727,23, 6,60
324,0.0,0.0, 1, 1,15,0.0, 1, 1,15
325,109048593.187031,0.0, 2,20,15,76422.1222161727,23, 6,60
408,103312071.462463,0.0, 1, 1,15,166632.373326554, 1, 7,15
461,62089590.5474911,0.0, 1, 1,15,100144.50088305, 1, 7,15
4,59, 2
8,46551773.522392,7056.14998823653, 1, 9,15,23520.4999607884, 1, 1,15
9,27977181.3336939,4240.68027491321, 1, 9,15,14135.6009163774, 1, 1,15
71,31204464.0603665,0.0, 1, 1,15,42054.5337740789, 1,20,15
93,18753591.6116638,0.0, 1, 1,15,25274.3822259621, 1,20,15
125,37776986.9102013,6007.79053915413, 1, 1,15,30038.9526957707, 1,19,15
137,22703616.4909786,3610.6260322803, 1, 1,15,18053.1301614015, 1,19,15
138,187460338.189089,0.0, 1, 1,15,304437.441145958,18,13,30
139,0.0,0.0, 1, 1,15,0.0, 1, 1,15
140,18.6206410049941,17.2359047124572, 8, 6,60,20.9889074681185,27,16,15
141,19.8318484995767,19.4991288394205,10, 7,60,20.4963902845259,27,23,30
142,20.0097652019716,19.9999999999998,17, 1,30,20.662590688065,27,15,60
143,19.3152031034828,18.6179523562286, 8, 6,60,20.8252073018626,27,15,60
144,20.0239999904923,19.9999999999999, 8, 6,30,20.7145516121217,23,20,45
145,19.9279242450345,19.7495644197102,10, 7,60,20.5651472639083,27,20,60
146,169513544.037683,15306.2229269348,23,19,45,101111.058348529, 8, 6,60
147,0.0,0.0, 1, 1,15,0.0, 1, 1,15
148,0.375106210885906,0.358645064401393,24,15,60,0.390598177887584, 8, 6,60
149,102032142.950559,9809.42030799119,23,18,60,60735.2881966422, 8, 6,60
150,0.0,0.0, 1, 1,15,0.0, 1, 1,15
151,0.375123575701151,0.358290434314007,23,15,60,0.390598828026607, 8, 6,60
224,20.0097652019716,19.9999999999998,17, 1,30,20.662590688065,27,15,60
225,18.4370113003852,6.45968665803235, 9,17,60,37.9539279507626, 3,22,15
258,20.0239999904923,19.9999999999999, 8, 6,30,20.7145516121217,23,20,45
259,18.4654814808316,6.12089467830334, 9,17,60,38.3664702153307, 3,21,60
260,452121494.319672,0.0,23,13,45,365171.540673478, 8, 6,60
291,0.0,0.0, 1, 1,15,0.0, 1, 1,15
322,452121494.319682,0.0,23,13,45,365171.540673478, 8, 6,60
323,72581601.443011,0.0, 2,20,60,66821.0550845096, 8, 6,60
324,0.0,0.0, 1, 1,15,0.0, 1, 1,15
325,72581601.4430132,0.0, 2,20,60,66821.0550845096, 8, 6,60
408,93314129.0628701,0.0, 1, 1,15,166632.373326554, 1, 7,15
461,56080920.4945081,0.0, 1, 1,15,100144.50088305, 1, 7,15
4,90, 3
8,51378180.1143456,7056.14998823653, 1, 9,15,23520.4999607884, 1, 1,15
9,30877806.6417345,4240.68027491321, 1, 9,15,14135.6009163774, 1, 1,15
71,34673963.096728,0.0, 1, 1,15,42054.5337740789, 1,20,15
93,20838728.1453057,0.0, 1, 1,15,25274.3822259621, 1,20,15
125,41886315.6389827,6007.79053915413, 1, 1,15,30038.9526957707, 1,19,15
137,25173284.6970584,3610.6260322803, 1, 1,15,18053.1301614015, 1,19,15
138,272654140.379422,0.0, 1, 1,15,350739.760244376,23,13,30
139,0.0,0.0, 1, 1,15,0.0, 1, 1,15
140,19.5619518761062,17.5793092320596, 8, 6,60,22.5251599210854,20,16,15
141,20.2722713387633,19.5829555596548, 8, 7,60,21.541135107023,20,23,60
142,20.2139146369207,19.9999999999998,13, 5,60,22.3976104473751,30,18,30
143,19.8879332565134,18.7896546160298, 8, 6,60,22.4012554551855,20,16,15
144,20.2432359301149,19.9999999999999, 8, 4,60,21.7114095934445,20,20,60
145,20.2577536344391,19.7914777798274, 8, 7,60,21.6078524133297,20,22,60
146,139485934.918663,4190.92999769083,19,19,60,82710.5351470209, 8, 6,60
147,0.0,0.0, 1, 1,15,0.0, 1, 1,15
148,0.368124721606527,0.354435725176796,19,15,60,0.383601912542692, 8, 6,60
149,84127281.4589899,2126.11147030626,19,19,60,50002.8578338624, 8, 6,60
150,0.0,0.0, 1, 1,15,0.0, 1, 1,15
151,0.368163324654069,0.353085731348048,19,15,60,0.383595789927849, 8, 6,60
224,20.2139146369207,19.9999999999998,13, 5,60,22.3976104473751,30,18,30
225,23.3627944026551,8.73606838874022, 7,17,60,41.0437667235168,31,20,30
258,20.2432359301149,19.9999999999999, 8, 4,60,21.7114095934445,20,20,60
259,23.3482287027063,8.47277431971125, 7,17,60,39.1783315894667,31,17,60
260,253849822.032829,0.0, 1,12,60,300537.578562154, 8, 6,60
291,0.0,0.0, 1, 1,15,0.0, 1, 1,15
322,253849822.032835,0.0, 1,12,60,300537.578562175, 8, 6,60
323,28027127.6940917,0.0, 1,19,15,52171.333816727, 8, 6,60
324,0.0,0.0, 1, 1,15,0.0, 1, 1,15
325,28027127.6940926,0.0, 1,19,15,52171.333816727, 8, 6,60
408,103312071.462463,0.0, 1, 1,15,166632.373326554, 1, 7,15
461,62089590.5474911,0.0, 1, 1,15,100144.50088305, 1, 7,15
4,120, 4
8,50145705.9164004,7056.14998823653, 1,15,15,23520.4999607884, 1, 1,15
9,30137101.1537164,4240.68027491321, 1,15,15,14135.6009163774, 1, 1,15
71,33223081.6815223,0.0, 1, 1,15,42054.5337740789, 1,19,15
93,19966761.95851,0.0, 1, 1,15,25274.3822259621, 1,19,15
125,40372352.4231159,6007.79053915413, 1, 1,15,30038.9526957707, 1,19,15
137,24263406.9369237,3610.6260322803, 1, 1,15,18053.1301614015, 1,19,15
138,298205493.862122,0.0, 1, 1,15,371022.212217651,19,12,30
139,0.0,0.0, 1, 1,15,0.0, 1, 1,15
140,21.9458868667587,18.0740182371484, 1, 7,15,27.3571439023334,13,16,45
141,22.3576742375923,19.8593854482661, 2, 8,45,26.2495983596695,13,22,60
142,21.9599991542397,19.9999999999999, 1, 7,45,27.4051394627093,19,19,30
143,21.9529430104992,19.0370091185743, 1, 7,15,27.2128931504685,13,17,15
144,22.286558968259,20., 2, 7,15,26.4223812063033,13,21,60
145,22.3221166029256,19.9296927241331, 2, 8,45,26.312622987516,13,21,60
146,97865640.7352064,0.0, 7,19,60,66882.2573172501, 1, 1,60
147,34048.5189401263,0.0, 1, 1,15,9004.95505654823,19,19,60
148,0.362017889690056,0.350244561923326,19,12,60,0.372679534192571, 1, 4,60
149,60910323.571685,0.0, 7,19,60,39820.4693542887, 1, 1,60
150,88254.1420618826,0.0, 1, 1,15,10058.2872482162,19,19,60
151,0.362427155861279,0.34831544015929,19,12,60,0.372698763823023, 1, 4,60
224,21.9599991542397,19.9999999999999, 1, 7,45,27.4051394627093,19,19,30
225,35.0984645058577,16.6009514428481,18,17,30,64.1072993181887,20,23,45
258,22.286558968259,20., 2, 7,15,26.4223812063033,13,21,60
259,34.2510650740509,17.8036191468438,18,18,15,57.0416386232269,25, 1,60
260,55423189.6978957,0.0, 1,13,45,220251.745063203, 1, 7,15
291,0.0,0.0, 1, 1,15,0.0, 1, 1,15
322,55423189.6978973,0.0, 1,13,45,220251.745063203, 1, 7,15
323,1884556.34622003,0.0, 1, 1,15,24666.4705758315, 2, 6,60
324,0.0,0.0, 1, 1,15,0.0, 1, 1,15
325,1884556.3462201,0.0, 1, 1,15,24666.470575832, 2, 6,60
408,99979423.9959323,0.0, 1, 1,15,166632.373326554, 1, 6,15
461,60086700.5298301,0.0, 1, 1,15,100144.50088305, 1, 6,15
4,151, 5
8,51378180.1143457,7056.14998823653, 1, 8,15,23520.4999607884, 1, 1,15
9,30877806.6417345,4240.68027491321, 1, 8,15,14135.6009163774, 1, 1,15
71,34673963.096728,0.0, 1, 1,15,42054.5337740789, 1,19,15
93,20838728.1453057,0.0, 1, 1,15,25274.3822259621, 1,19,15
125,41886315.6389828,6007.79053915413, 1, 1,15,30038.9526957707, 1,18,15
137,25173284.6970584,3610.6260322803, 1, 1,15,18053.1301614015, 1,18,15
138,350851485.488721,0.0, 1, 1,15,384508.777843363,30,18,30
139,0.0,0.0, 1, 1,15,0.0, 1, 1,15
140,26.6108737550951,20.0989142520481, 3, 7,15,34.5227130909199,26,17,30
141,26.8653953004757,22.25757496089, 4,11,30,33.0536281869637,26,22,60
142,26.3877334302902,19.7502776106322, 3, 6,60,34.8414075449166,25,19,30
143,26.4993035926927,19.9269262284895, 3, 6,60,34.6784296319232,25,19,30
144,26.7946636021752,22.0448162913185, 4, 9,45,33.1828483458484,26,21,60
145,26.8300294513255,22.1525987772699, 4,11,30,33.0973801679228,26,22,60
146,98870494.6940445,0.0,11,18,60,66127.707949931,17, 5,60
147,22915.041867901,0.0, 1, 1,15,5281.17969915398,11,18,60
148,0.360431183975276,0.351293777006836,23,15,60,0.367403865504689,18,21,52
149,62203178.4524171,0.0, 7,20,60,43598.6179575885,17, 5,60
150,71852.7839091419,0.0, 1, 1,15,7345.72094008555,11,18,60
151,0.360936776428533,0.348718165558712,23,15,60,0.369442932042144,18,24,60
224,26.3877334302902,19.7502776106322, 3, 6,60,34.8414075449166,25,19,30
225,40.9745122375057,20.0533649072391, 8,17,15,65.941704622646,28, 5,60
258,26.7946636021752,22.0448162913185, 4, 9,45,33.1828483458484,26,21,60
259,39.7140778921791,21.8722281949441,17,16,15,61.5464351202451,28,15,30
260,0.0,0.0, 1, 1,15,0.0, 1, 1,15
291,0.0,0.0, 1, 1,15,0.0, 1, 1,15
322,0.0,0.0, 1, 1,15,0.0, 1, 1,15
323,0.0,0.0, 1, 1,15,0.0, 1, 1,15
324,0.0,0.0, 1, 1,15,0.0, 1, 1,15
325,0.0,0.0, 1, 1,15,0.0, 1, 1,15
408,103312071.462463,0.0, 1, 1,15,166632.373326554, 1, 6,15
461,62089590.5474911,0.0, 1, 1,15,100144.50088305, 1, 6,15
4,181, 6
8,49769377.9170278,7056.14998823653, 1, 8,15,23520.4999607884, 1, 1,15
9,29910931.5390543,4240.68027491321, 1, 8,15,14135.6009163774, 1, 1,15
71,33517463.4179409,0.0, 1, 1,15,42054.5337740789, 1,19,15
93,20143682.6340917,0.0, 1, 1,15,25274.3822259621, 1,19,15
125,40516539.3960555,6007.79053915413, 1, 1,15,30038.9526957707, 1,18,15
137,24350061.9616984,3610.6260322803, 1, 1,15,18053.1301614015, 1,18,15
138,372051881.911502,0.0, 1, 1,15,433027.588560551,23,18,45
139,0.0,0.0, 1, 1,15,0.0, 1, 1,15
140,31.9838943297054,26.184228040924, 1, 6,45,37.9831532852555,10,19,30
141,32.0179178025149,27.7425524277112, 1,11,15,36.000724633093,11,22,60
142,31.7311626820899,25.74066207313, 1, 5,60,38.1762296193259,10,19,30
143,31.8575285058976,25.9894773237884, 1, 6,15,38.0796914522907,10,19,30
144,31.9137852198971,27.517433634729, 1, 9,45,36.0514329973117,11,22,45
145,31.965851511206,27.6423812639264, 1, 9,45,36.0257690447569,11,22,60
146,107161614.520381,0.0, 1,15,60,58256.0812613148, 1, 4,60
147,1148.36872202994,0.0, 1, 1,15,1148.36872202994, 1,15,60
148,0.360355095843722,0.353375066404459,15,15,60,0.36778408896459,12, 3,22
149,65781034.4205861,0.0, 1,15,60,40275.7635659476,12, 7,15
150,2963.10442739293,0.0, 1, 1,15,2963.10442739293, 1,15,60
151,0.36058308752592,0.351922219207929, 6,15,60,0.37034648475769,12, 6,60
224,31.7311626820899,25.74066207313, 1, 5,60,38.1762296193259,10,19,30
225,43.7081786489606,18.69405472689, 1,15,15,70.1089282431489,14, 5,60
258,31.9137852198971,27.517433634729, 1, 9,45,36.0514329973117,11,22,45
259,42.9617087428537,20.0228298140643, 1,15,15,64.546925545302,14, 5,60
260,0.0,0.0, 1, 1,15,0.0, 1, 1,15
291,0.0,0.0, 1, 1,15,0.0, 1, 1,15
322,0.0,0.0, 1, 1,15,0.0, 1, 1,15
323,0.0,0.0, 1, 1,15,0.0, 1, 1,15
324,0.0,0.0, 1, 1,15,0.0, 1, 1,15
325,0.0,0.0, 1, 1,15,0.0, 1, 1,15
408,99979423.9959323,0.0, 1, 1,15,166632.373326554, 1, 6,15
461,60086700.5298301,0.0, 1, 1,15,100144.50088305, 1, 6,15
4,212, 7
8,51754508.1137183,7056.14998823653, 1,15,15,23520.4999607884, 1, 1,15
9,31103976.2563966,4240.68027491321, 1,15,15,14135.6009163774, 1, 1,15
71,34379581.3603095,0.0, 1, 1,15,42054.5337740789, 1,19,15
93,20661807.469724,0.0, 1, 1,15,25274.3822259621, 1,19,15
125,41742128.6660431,6007.79053915413, 1, 1,15,30038.9526957707, 1,19,15
137,25086629.6722837,3610.6260322803, 1, 1,15,18053.1301614015, 1,19,15
138,315457856.921816,0.0, 1, 1,15,343985.752838609,10,12,30
139,0.0,0.0, 1, 1,15,0.0, 1, 1,15
140,26.4337560355131,24.1629522389604,12, 6,30,33.3474955036984, 1,14,15
141,25.6342550756939,24.5289390867888,17,22,15,32.2325369583984, 1, 1,15
142,25.5906387646604,23.9353492311476, 3,14,15,33.1642447854986, 1,13,60
143,26.0121974000867,24.1476540807444,17,21,60,33.1931483154381, 1,13,60
144,25.2867680154487,23.9511364744598, 3,14,15,31.9319162140708, 1, 1,15
145,25.4605115455713,24.2676234650853,17,21,60,32.0822265862346, 1, 1,15
146,24668099.3870517,0.0, 1,14, 2,39478.9846938986, 1, 1,15
147,22504859.4900042,0.0, 1, 1,15,50279.6623188631,30,14,45
148,0.350449450270302,0.341595438792819,20,15,60,0.359679179527666, 1, 1,60
149,13484989.5024684,0.0, 1,14, 2,26919.0066096701, 1, 3,60
150,13326471.541813,0.0, 1, 1,15,29422.5448463501,31,15,60
151,0.350093405708818,0.341589672877305,20,15,60,0.361514906747695, 1, 3,60
224,25.5906387646604,23.4185740388683,22,14, 3,33.1642447854986, 1,13,60
225,72.9885811829921,50.1520336709488,12,13,60,91.3581564301053, 2,14, 3
258,25.2867680154487,23.5732630207198,31,14, 3,31.9319162140708, 1, 1,15
259,74.3850620545007,55.3927353660256, 1, 1,15,90.9904969371769, 2,14, 1
260,0.0,0.0, 1, 1,15,0.0, 1, 1,15
291,343109755.259296,0.0, 1, 1,15,1136900.71970549, 1,14,45
322,2.495558378127912E-006,0.0, 1, 1,15,7.909193300292827E-008,29,14,45
323,0.0,0.0, 1, 1,15,0.0, 1, 1,15
324,125140973.930975,0.0, 1, 1,15,643694.243937172, 1,14,45
325,7.281012156826447E-007,0.0, 1, 1,15,4.174580681137741E-008, 1,14,45
408,103312071.462463,0.0, 1, 1,15,166632.373326554, 1, 6,15
461,62089590.5474911,0.0, 1, 1,15,100144.50088305, 1, 6,15
4,243, 8
8,51378180.1143456,7056.14998823653, 1, 8,15,23520.4999607884, 1, 1,15
9,30877806.6417345,4240.68027491321, 1, 8,15,14135.6009163774, 1, 1,15
71,34673963.096728,0.0, 1, 1,15,42054.5337740789, 1,19,15
93,20838728.1453057,0.0, 1, 1,15,25274.3822259621, 1,19,15
125,41886315.6389828,6007.79053915413, 1, 1,15,30038.9526957707, 1,18,15
137,25173284.6970584,3610.6260322803, 1, 1,15,18053.1301614015, 1,18,15
138,317657119.459097,0.0, 1, 1,15,338315.062846248, 9,13,15
139,0.0,0.0, 1, 1,15,0.0, 1, 1,15
140,26.4043549902376,23.1211447461214,26, 6,60,30.7168347540012, 7,14,15
141,25.5177859144276,24.3721582641563,26, 8,15,27.3393331012115, 7,14,15
142,25.5532876932876,22.9204431595571,26, 6,60,30.82612705097, 7,13,60
143,25.9788213417627,23.0207939528392,26, 6,60,30.7021946779045, 7,13,60
144,25.1826857154158,23.9415692994457,25,14,15,27.6139930439979, 7,13,60
145,25.3502358149217,24.3241163006622,26,21,60,27.4430471556006, 7,13,60
146,24531386.2600057,0.0, 1,14, 1,29655.9141305946,28, 6,60
147,24157324.9908621,0.0, 1, 1,15,51618.6590416103, 7,16,15
148,0.349834157359578,0.339174179758543, 7,15,60,0.356870939892052,25,13,60
149,13243497.0949573,0.0, 1,13,15,20083.9316577825,26, 6,60
150,14491785.7869875,0.0, 1, 1,15,30666.3774124585, 7,15,60
151,0.349402427993103,0.339167055450993, 7,15,60,0.357852461137994,28, 6,60
224,25.5532876932876,22.9204431595571,26, 6,60,30.82612705097, 7,13,60
225,71.8899059792721,49.4745264887672,30,13,60,93.3976092365122, 2, 5,60
258,25.1826857154158,23.5497302856955, 8,14, 3,27.6139930439979, 7,13,60
259,73.5539233507839,55.6569827463897,27,22,30,93.9836939823971, 2, 5,60
260,0.0,0.0, 1, 1,15,0.0, 1, 1,15
291,347800352.168185,0.0, 1, 1,15,783926.969407314, 7,14,45
322,2.729655788675183E-006,0.0, 1, 1,15,9.351879270980135E-008, 1,14,45
323,0.0,0.0, 1, 1,15,0.0, 1, 1,15
324,123112144.774729,0.0, 1, 1,15,280977.783607449, 7,14, 1
325,6.481096968193676E-007,0.0, 1, 1,15,2.056594894384034E-008,12,15,45
408,103312071.462463,0.0, 1, 1,15,166632.373326554, 1, 6,15
461,62089590.5474911,0.0, 1, 1,15,100144.50088305, 1, 6,15
4,273, 9
8,49957541.9167141,7056.14998823653, 1, 8,15,23520.4999607884, 1, 1,15
9,30024016.3463853,4240.68027491321, 1, 8,15,14135.6009163774, 1, 1,15
71,33370272.5497316,0.0, 1, 1,15,42054.5337740789, 1,19,15
93,20055222.2963009,0.0, 1, 1,15,25274.3822259621, 1,19,15
125,40444445.9095857,6007.79053915413, 1, 1,15,30038.9526957707, 1,18,15
137,24306734.4493111,3610.6260322803, 1, 1,15,18053.1301614015, 1,18,15
138,250128856.904677,0.0, 1, 1,15,323460.563889152,12,12,30
139,0.0,0.0, 1, 1,15,0.0, 1, 1,15
140,24.9155659056787,22.3099153889258,30, 7,30,28.5621129256506, 8,14,15
141,24.7644574897219,23.8121459282011,30, 8,60,25.9974009666982, 8,14,15
142,24.3535283186876,22.0688007204889,30, 7,30,28.5202588594185, 8,13,60
143,24.6345471121831,22.1893580547073,30, 7,30,28.4780295514369, 8,13,60
144,24.5578649112846,23.7119509900791,30, 7,60,26.1888917480074, 8,13,60
145,24.6611612005032,23.7772972042685,30, 7,60,26.067216560566, 8,13,60
146,43834207.4862751,0.0, 1,14, 1,47393.8613056475,15,24,60
147,2592125.64357023,0.0, 1, 1,15,27179.6457709394,20,18,60
148,0.353321391198889,0.342634335802087, 6,15,60,0.361383932995946,30,24,60
149,27502455.7244245,0.0, 1,12,60,29168.0382318938,15,24,60
150,1540188.62399642,0.0, 1, 1,15,16942.7911266947,20,18,60
151,0.353569096724244,0.342638908388593, 6,15,60,0.362606658382728,30,24,60
224,24.3535283186876,22.0688007204889,30, 7,30,28.5202588594185, 8,13,60
225,63.3991501759775,35.3851917742627,16,13,60,89.4472304495265, 9, 6,60
258,24.5578649112846,23.6306816583847, 8,14, 2,26.1888917480074, 8,13,60
259,62.6177455888489,37.7186503815156,16,22,30,86.2373176371934, 9, 6,60
260,0.0,0.0, 1, 1,15,0.0, 1, 1,15
291,171018335.27635,0.0, 1, 1,15,506160.354990369, 7,14,45
322,3.203846128079542E-006,0.0, 1, 1,15,3.345803634147160E-008,15,14,29
323,0.0,0.0, 1, 1,15,0.0, 1, 1,15
324,57934994.7032366,0.0, 1, 1,15,164735.002213867, 8,14,45
325,1.147526830383835E-006,0.0, 1, 1,15,9.937650702340761E-009, 6,15,45
408,99979423.9959323,0.0, 1, 1,15,166632.373326554, 1, 6,15
461,60086700.5298301,0.0, 1, 1,15,100144.50088305, 1, 6,15
4,304,10
8,51566344.114032,7056.14998823653, 1,15,15,23520.4999607884, 1, 1,15
9,30990891.4490655,4240.68027491321, 1,15,15,14135.6009163774, 1, 1,15
71,34526772.2285188,0.0, 1, 1,15,42054.5337740789, 1,19,15
93,20750267.8075148,0.0, 1, 1,15,25274.3822259621, 1,19,15
125,41814222.1525129,6007.79053915413, 1, 1,15,30038.9526957707, 1,19,15
137,25129957.184671,3610.6260322803, 1, 1,15,18053.1301614015, 1,19,15
138,210518905.900817,0.0, 1, 1,15,309543.462811813,10,12,30
139,0.0,0.0, 1, 1,15,0.0, 1, 1,15
140,22.5132306329919,18.4569213694676,24, 7,30,27.5578104558752, 7,16,30
141,23.1735311828213,20.2443542782327,25,10,15,26.8839393473974, 7,22,60
142,22.5274092149547,19.9999999999999,24, 6,45,27.4023360299924, 7,14,60
143,22.5203199239733,19.2284606847338,24, 7,30,27.4777261015578, 7,16,15
144,23.18000935244,20.0452985985186,31,12,30,27.1805004971768, 7,22,60
145,23.1767702676306,20.1539146119161,25,11,30,27.0322199222871, 7,22,60
146,81633853.6648386,0.0,14,18,45,56124.1852972562,24, 3,60
147,33815.0650139645,0.0, 1, 1,15,12207.683301689,14,18,60
148,0.358922424677326,0.351003011607221,22,15,60,0.369589426460663,24, 6,60
149,53183773.248813,0.0,14,18,30,35862.0665850856,15,24,60
150,25657.271706513,0.0, 1, 1,15,8092.05851203033,14,18,60
151,0.359718611192999,0.349430001280178,22,15,60,0.370261042966088,24, 6,60
224,22.5274092149547,19.9999999999999,24, 6,45,27.4023360299924, 7,14,60
225,43.9262968078235,19.1484220727795,19,15,45,70.7789053941179,28,23,30
258,23.18000935244,20.0452985985186,31,12,30,27.1805004971768, 7,22,60
259,42.4187090591914,19.4667421095842,19,15,30,66.333516264794,28,24,30
260,26671661.9273711,0.0, 1, 1,15,156164.995906548,24, 6,60
291,0.0,0.0, 1, 1,15,0.0, 1, 1,15
322,26671661.9273719,0.0, 1, 1,15,156164.995906548,24, 6,60
323,0.0,0.0, 1, 1,15,0.0, 1, 1,15
324,0.0,0.0, 1, 1,15,0.0, 1, 1,15
325,0.0,0.0, 1, 1,15,0.0, 1, 1,15
408,103312071.462463,0.0, 1, 1,15,166632.373326554, 1, 6,15
461,62089590.5474911,0.0, 1, 1,15,100144.50088305, 1, 6,15
4,334,11
8,49769377.9170278,7056.14998823653, 1, 9,15,23520.4999607884, 1, 1,15
9,29910931.5390543,4240.68027491321, 1, 9,15,14135.6009163774, 1, 1,15
71,33517463.4179409,0.0, 1, 1,15,42054.5337740789, 1,20,15
93,20143682.6340917,0.0, 1, 1,15,25274.3822259621, 1,20,15
125,40516539.3960556,6007.79053915413, 1, 1,15,30038.9526957707, 1,19,15
137,24350061.9616984,3610.6260322803, 1, 1,15,18053.1301614015, 1,19,15
138,158034844.694978,0.0, 1, 1,15,237162.295086423,15,12,30
139,0.0,0.0, 1, 1,15,0.0, 1, 1,15
140,19.1857953470216,17.4438632272649,27, 7,60,22.179113591153, 7,16,30
141,20.1293216656341,19.5414928677711,27, 7,60,21.8917631484634, 7,24,15
142,20.1209426457583,19.9999999999998,22, 8,45,22.1951805188714, 7,16,30
143,19.6533689963899,18.7219316136324,27, 7,60,22.1871470550122, 7,16,30
144,20.2325136261817,19.9999999999999,11, 7,30,22.2563662358563, 7,23,60
145,20.1809176459079,19.7707464338856,27, 7,60,22.0732274254146, 7,23,60
146,118780830.977722,4511.44115611968, 7,13,60,82432.8869613132,30,24,60
147,0.0,0.0, 1, 1,15,0.0, 1, 1,15
148,0.365594739958553,0.351420969078579, 6,15,60,0.381145081586407,23, 8,60
149,71983616.4199973,1889.99632071458, 7,13,60,48440.6210682254,23, 7,60
150,0.0,0.0, 1, 1,15,0.0, 1, 1,15
151,0.365732938441342,0.350344877845427, 6,15,60,0.381154793223551,23, 8,60
224,20.1209426457583,19.9999999999998,22, 8,45,22.1951805188714, 7,16,30
225,37.086709010549,15.9714557691857,23,14,30,62.1640355056956,19,11,60
258,20.2325136261817,19.9999999999999,11, 7,30,22.2563662358563, 7,23,60
259,36.7896579654981,15.4216000935048,23,13,30,62.0167100013006,19,12,45
260,283130805.256706,0.0, 1,11,60,304095.546186366,27, 6,60
291,0.0,0.0, 1, 1,15,0.0, 1, 1,15
322,283130805.256713,0.0, 1,11,60,304095.546186366,27, 6,60
323,30838444.8777154,0.0, 1, 1,15,47525.8367291608,23, 6,60
324,0.0,0.0, 1, 1,15,0.0, 1, 1,15
325,30838444.8777165,0.0, 1, 1,15,47525.8367291622,23, 6,60
408,99979423.9959323,0.0, 1, 1,15,166632.373326554, 1, 7,15
461,60086700.5298301,0.0, 1, 1,15,100144.50088305, 1, 7,15
4,365,12
8,51754508.1137183,7056.14998823653, 1, 9,15,23520.4999607884, 1, 1,15
9,31103976.2563966,4240.68027491321, 1, 9,15,14135.6009163774, 1, 1,15
71,34379581.3603095,0.0, 1, 1,15,42054.5337740789, 1,20,15
93,20661807.469724,0.0, 1, 1,15,25274.3822259621, 1,20,15
125,41742128.666043,6007.79053915413, 1, 1,15,30038.9526957707, 1,19,15
137,25086629.6722837,3610.6260322803, 1, 1,15,18053.1301614015, 1,19,15
138,147249414.647816,0.0, 1, 1,15,226133.213871031,19,12,30
139,0.0,0.0, 1, 1,15,0.0, 1, 1,15
140,18.2883235120548,17.0308551778785,16, 8,30,19.9876901394443,29,15,30
141,19.7140271510889,19.4046892047617,16, 8,60,20.0833218012079,29,23,15
142,20.,19.9999999999998,16, 4,30,20.0000000000002,31, 6,45
143,19.1441617560274,18.5154275889392,16, 8,30,19.9938450697222,29,15,30
144,20.0034949868381,19.9999999999999,31, 4,30,20.2621090834655,29,20,45
145,19.8587610689635,19.7023446023808,16, 8,60,20.1478133561406,29,20,60
146,198066167.816337,29275.5539856107,11,15,60,111956.316082306,31, 9,60
147,0.0,0.0, 1, 1,15,0.0, 1, 1,15
148,0.376484699007163,0.361694889471417,29,15,60,0.394670086295608,31,24,60
149,119040726.650343,17790.4967663936,11,15,60,67023.6820332563,31, 9,60
150,0.0,0.0, 1, 1,15,0.0, 1, 1,15
151,0.376489174076091,0.361695675790032,29,15,60,0.394668194361877,31,24,60
224,20.,19.9999999999998,16, 4,30,20.0000000000002,31, 6,45
225,20.2858271396488,7.90612308956543,16,19,60,40.1827404369188,25, 4,30
258,20.0034949868381,19.9999999999999,31, 4,30,20.2621090834655,29,20,45
259,20.2730906772779,7.43425231990469,16,19,60,40.8221881750031,25, 4,15
260,596052192.037441,28861.728697129,29,15,45,394563.630720982,18, 6,60
291,0.0,0.0, 1, 1,15,0.0, 1, 1,15
322,596052192.037454,28861.7286971305,29,15,45,394563.630720998,18, 6,60
323,96958787.6965831,0.0, 7,20,15,73294.6380580715,17, 7,60
324,0.0,0.0, 1, 1,15,0.0, 1, 1,15
325,96958787.6965859,0.0, 7,20,15,73294.6380580719,17, 7,60
408,103312071.462463,0.0, 1, 1,15,166632.373326554, 1, 7,15
461,62089590.5474911,0.0, 1, 1,15,100144.50088305, 1, 7,15
End of Data
 Number of Records Written=         384
