Program Version,EnergyPlus, Version 8.4.0-09f5359d8a, YMD=2023.08.02 14:39
1,5,Environment Title[],Latitude[deg],Longitude[deg],Time Zone[],Elevation[m]
2,6,Day of Simulation[],Month[],Day of Month[],DST Indicator[1=yes 0=no],Hour[],StartMinute[],EndMinute[],DayType
3,3,Cumulative Day of Simulation[],Month[],Day of Month[],DST Indicator[1=yes 0=no],DayType  ! When Daily Report Variables Requested
4,2,Cumulative Days of Simulation[],Month[]  ! When Monthly Report Variables Requested
5,1,Cumulative Days of Simulation[] ! When Run Period Report Variables Requested
8,9,PERIM,Zone People Total Heating Energy [J] !Monthly  [Value,Min,Day,Hour,Minute,Max,Day,Hour,Minute]
9,9,CORE,Zone People Total Heating Energy [J] !Monthly  [Value,Min,Day,Hour,Minute,Max,Day,Hour,Minute]
71,9,PERIM,Zone Lights Electric Energy [J] !Monthly  [Value,Min,Day,Hour,Minute,Max,Day,Hour,Minute]
93,9,CORE,Zone Lights Electric Energy [J] !Monthly  [Value,Min,Day,Hour,Minute,Max,Day,Hour,Minute]
125,9,PERIM,Zone Electric Equipment Electric Energy [J] !Monthly  [Value,Min,Day,Hour,Minute,Max,Day,Hour,Minute]
137,9,CORE,Zone Electric Equipment Electric Energy [J] !Monthly  [Value,Min,Day,Hour,Minute,Max,Day,Hour,Minute]
138,9,PERIM,Zone Windows Total Transmitted Solar Radiation Energy [J] !Monthly  [Value,Min,Day,Hour,Minute,Max,Day,Hour,Minute]
139,9,CORE,Zone Windows Total Transmitted Solar Radiation Energy [J] !Monthly  [Value,Min,Day,Hour,Minute,Max,Day,Hour,Minute]
140,9,PERIM,Zone Mean Radiant Temperature [C] !Monthly [Value,Min,Day,Hour,Minute,Max,Day,Hour,Minute]
141,9,CORE,Zone Mean Radiant Temperature [C] !Monthly [Value,Min,Day,Hour,Minute,Max,Day,Hour,Minute]
142,9,PERIM,Zone Mean Air Temperature [C] !Monthly [Value,Min,Day,Hour,Minute,Max,Day,Hour,Minute]
143,9,PERIM,Zone Operative Temperature [C] !Monthly [Value,Min,Day,Hour,Minute,Max,Day,Hour,Minute]
144,9,CORE,Zone Mean Air Temperature [C] !Monthly [Value,Min,Day,Hour,Minute,Max,Day,Hour,Minute]
145,9,CORE,Zone Operative Temperature [C] !Monthly [Value,Min,Day,Hour,Minute,Max,Day,Hour,Minute]
146,9,PERIM,Zone Infiltration Total Heat Loss Energy [J] !Monthly  [Value,Min,Day,Hour,Minute,Max,Day,Hour,Minute]
147,9,PERIM,Zone Infiltration Total Heat Gain Energy [J] !Monthly  [Value,Min,Day,Hour,Minute,Max,Day,Hour,Minute]
148,9,PERIM,Zone Infiltration Air Change Rate [ach] !Monthly [Value,Min,Day,Hour,Minute,Max,Day,Hour,Minute]
149,9,CORE,Zone Infiltration Total Heat Loss Energy [J] !Monthly  [Value,Min,Day,Hour,Minute,Max,Day,Hour,Minute]
150,9,CORE,Zone Infiltration Total Heat Gain Energy [J] !Monthly  [Value,Min,Day,Hour,Minute,Max,Day,Hour,Minute]
151,9,CORE,Zone Infiltration Air Change Rate [ach] !Monthly [Value,Min,Day,Hour,Minute,Max,Day,Hour,Minute]
224,9,PERIM,Zone Air Temperature [C] !Monthly [Value,Min,Day,Hour,Minute,Max,Day,Hour,Minute]
225,9,PERIM,Zone Air Relative Humidity [%] !Monthly [Value,Min,Day,Hour,Minute,Max,Day,Hour,Minute]
258,9,CORE,Zone Air Temperature [C] !Monthly [Value,Min,Day,Hour,Minute,Max,Day,Hour,Minute]
259,9,CORE,Zone Air Relative Humidity [%] !Monthly [Value,Min,Day,Hour,Minute,Max,Day,Hour,Minute]
260,9,PERIM IDEAL LOADS AIR,Zone Ideal Loads Supply Air Total Heating Energy [J] !Monthly  [Value,Min,Day,Hour,Minute,Max,Day,Hour,Minute]
291,9,PERIM IDEAL LOADS AIR,Zone Ideal Loads Supply Air Total Cooling Energy [J] !Monthly  [Value,Min,Day,Hour,Minute,Max,Day,Hour,Minute]
322,9,PERIM IDEAL LOADS AIR,Zone Ideal Loads Zone Total Heating Energy [J] !Monthly  [Value,Min,Day,Hour,Minute,Max,Day,Hour,Minute]
323,9,CORE IDEAL LOADS AIR,Zone Ideal Loads Supply Air Total Heating Energy [J] !Monthly  [Value,Min,Day,Hour,Minute,Max,Day,Hour,Minute]
324,9,CORE IDEAL LOADS AIR,Zone Ideal Loads Supply Air Total Cooling Energy [J] !Monthly  [Value,Min,Day,Hour,Minute,Max,Day,Hour,Minute]
325,9,CORE IDEAL LOADS AIR,Zone Ideal Loads Zone Total Heating Energy [J] !Monthly  [Value,Min,Day,Hour,Minute,Max,Day,Hour,Minute]
408,9,DHW PERIM,Water Use Equipment Heating Energy [J] !Monthly  [Value,Min,Day,Hour,Minute,Max,Day,Hour,Minute]
461,9,DHW CORE,Water Use Equipment Heating Energy [J] !Monthly  [Value,Min,Day,Hour,Minute,Max,Day,Hour,Minute]
End of Data Dictionary
1,ARCHSIM,  37.57, 126.97,   9.00,  87.10
4,31, 1
8,51566344.1216385,7056.14998927729, 1,16,15,23520.4999642576, 1, 1,15
9,30990891.4424295,4240.68027400515, 1,16,15,14135.6009133505, 1, 1,15
71,34526772.2336112,0.0, 1, 1,15,42054.5337802819, 1,20,15
93,20750267.8030716,0.0, 1, 1,15,25274.3822205501, 1,20,15
125,41814222.1586803,6007.79054004027, 1, 1,15,30038.9527002013, 1,20,15
137,25129957.1792896,3610.62603150715, 1, 1,15,18053.1301575358, 1,20,15
138,277920706.156616,0.0, 1, 1,15,1110196.24335531,30,10,30
139,0.0,0.0, 1, 1,15,0.0, 1, 1,15
140,18.7274784781909,17.1047031226323,23, 7,60,21.6100740841775, 4,11,30
141,19.8583638056499,19.4338568614791,15, 8,60,20.3521109087115, 8,23,60
142,20.0277179194803,19.9999999999998,23, 8,15,21.3198892655261, 4,11,15
143,19.3775981988356,18.5523515613161,23, 7,60,21.4550509150543, 4,11,30
144,20.0087117162135,19.9999999999999,23, 6,15,20.5095228037434, 8,20,45
145,19.9335377609317,19.7169284307396,15, 8,60,20.3973289630146, 8,21,60
146,213916809.582536,23772.2153271392, 8,10,52,109778.086339112,23, 6,60
147,0.0,0.0, 1, 1,15,0.0, 1, 1,15
148,0.378881414548068,0.361693079582166, 6,15,60,0.394261425812546,23, 6,60
149,128648049.799309,13593.2354945779, 8,10,52,66076.2672607564,23, 6,60
150,0.0,0.0, 1, 1,15,0.0, 1, 1,15
151,0.378856100080156,0.361693673062678, 6,15,60,0.394259347451665,23, 6,60
224,20.0277179194803,19.9999999999998,23, 8,15,21.3198892655261, 4,11,15
225,17.510828703759,6.59125351678061,14,19,60,34.9721377842912, 2,22,45
258,20.0087117162135,19.9999999999999,23, 6,15,20.5095228037434, 8,20,45
259,17.6341163769908,6.19253590955214,14,19,60,35.2717265640404, 2,22,45
260,518907373.251715,0.0, 1,10,45,390539.641163525,23, 6,60
291,0.0,0.0, 1, 1,15,0.0, 1, 1,15
322,518907373.251726,0.0, 1,10,45,390539.641163526,23, 6,60
323,92480036.6574057,0.0, 1,20,15,73644.8720531794,23, 6,60
324,0.0,0.0, 1, 1,15,0.0, 1, 1,15
325,92480036.7241471,0.0, 1,20,15,73644.8720531807,23, 6,60
408,103312071.477701,0.0, 1, 1,15,166632.37335113, 1, 7,15
461,62089590.5341956,0.0, 1, 1,15,100144.500861606, 1, 7,15
4,59, 2
8,46551773.5292588,7056.14998927729, 1, 9,15,23520.4999642576, 1, 1,15
9,27977181.3277032,4240.68027400515, 1, 9,15,14135.6009133505, 1, 1,15
71,31204464.064969,0.0, 1, 1,15,42054.5337802819, 1,20,15
93,18753591.6076481,0.0, 1, 1,15,25274.3822205501, 1,20,15
125,37776986.9157733,6007.79054004027, 1, 1,15,30038.9527002013, 1,19,15
137,22703616.4861168,3610.62603150715, 1, 1,15,18053.1301575358, 1,19,15
138,367059399.486321,0.0, 1, 1,15,1315524.07715517,28, 9,15
139,0.0,0.0, 1, 1,15,0.0, 1, 1,15
140,19.8992632088615,17.3608452004874, 8, 6,60,25.7595025022425,28,11,60
141,20.3913656782492,19.5412651698633, 4, 8,45,22.8010282111572,28,22,30
142,20.5884856745067,19.9999999999998, 4, 1,60,25.589977292553,28,11,45
143,20.2438744416841,18.6804226002437, 8, 6,60,25.6647948822759,28,11,60
144,20.3042258628616,19.9999999999999, 8, 6,15,22.8115188510568,28,20,60
145,20.3477957705554,19.7706325849316, 4, 8,45,22.7896261152307,28,20,60
146,174004991.786921,11919.8874856994,26,10, 3,100807.282524635, 8, 6,60
147,0.0,0.0, 1, 1,15,0.0, 1, 1,15
148,0.375749615047668,0.36142535222888,23,15,60,0.390509310190178, 8, 6,60
149,103328417.007647,6487.89140366072,28,10,30,60608.2304527118, 8, 6,60
150,0.0,0.0, 1, 1,15,0.0, 1, 1,15
151,0.375391872711506,0.359331331973891,23,15,60,0.390508813229698, 8, 6,60
224,20.5884856745067,19.9999999999998, 4, 1,60,25.589977292553,28,11,45
225,17.9816976198629,6.14793379806073, 9,17,60,37.9618995536726, 3,22,15
258,20.3042258628616,19.9999999999999, 8, 6,15,22.8115188510568,28,20,60
259,18.2701507346467,6.09235694963918, 9,17,60,38.3700063627908, 3,21,60
260,297817434.50035,0.0, 1,10,45,349480.147224649, 8, 6,60
291,0.0,0.0, 1, 1,15,0.0, 1, 1,15
322,297817434.500356,0.0, 1,10,45,349480.147224662, 8, 6,60
323,46034911.1921449,0.0, 2,20,15,61843.6946584829, 8, 6,60
324,0.0,0.0, 1, 1,15,0.0, 1, 1,15
325,46034911.1921463,0.0, 2,20,15,61843.6946584839, 8, 6,60
408,93314129.0766331,0.0, 1, 1,15,166632.37335113, 1, 7,15
461,56080920.4824992,0.0, 1, 1,15,100144.500861606, 1, 7,15
4,90, 3
8,51378180.1219244,7056.14998927729, 1, 9,15,23520.4999642576, 1, 1,15
9,30877806.6351227,4240.68027400515, 1, 9,15,14135.6009133505, 1, 1,15
71,34673963.1018422,0.0, 1, 1,15,42054.5337802819, 1,20,15
93,20838728.1408435,0.0, 1, 1,15,25274.3822205501, 1,20,15
125,41886315.6451608,6007.79054004027, 1, 1,15,30038.9527002013, 1,19,15
137,25173284.6916677,3610.62603150715, 1, 1,15,18053.1301575358, 1,19,15
138,542254077.369032,0.0, 1, 1,15,1609418.58111468,30, 9,30
139,0.0,0.0, 1, 1,15,0.0, 1, 1,15
140,22.5781386984756,17.8270256467285, 8, 7,45,28.6373896226877,30,11,60
141,22.4864626751366,19.8839660894493, 8, 9,15,25.5221970412398,30,22,60
142,22.4631632483737,19.9999999999999, 6, 1,60,28.5134490615677,30,11,45
143,22.5206509734247,18.9135128233642, 8, 7,45,28.5486107805226,30,11,45
144,22.17775436391,19.9999999999999, 8, 7,45,25.514715433893,30,21,30
145,22.3321085195233,19.9419830447247, 8, 9,15,25.4975098507998,30,21,60
146,161300645.818612,6757.53852102836,30, 9,17,84645.6649413548, 7,11,15
147,0.0,0.0, 1, 1,15,0.0, 1, 1,15
148,0.370830525465664,0.360690639714317,19,15,60,0.384579715606602, 7,10,60
149,95813410.8993068,4352.80162096603,30, 9,29,49958.3697449336, 8, 6,60
150,0.0,0.0, 1, 1,15,0.0, 1, 1,15
151,0.370487978310688,0.356902868828796,19,15,60,0.383507383407546, 8, 6,60
224,22.4631632483737,19.9999999999999, 6, 1,60,28.5134490615677,30,11,45
225,21.5444794444473,8.11072999714932, 7,15,60,38.1397645773624,13, 1,30
258,22.17775436391,19.9999999999999, 8, 7,45,25.514715433893,30,21,30
259,21.6749764389667,8.19847133051003, 7,17,60,34.0300297901744, 6, 1,30
260,92714397.550469,0.0, 1, 1,15,271603.968292811, 8, 6,60
291,0.0,0.0, 1, 1,15,0.0, 1, 1,15
322,92714397.5504711,0.0, 1, 1,15,271603.968292811, 8, 6,60
323,3652341.75249685,0.0, 1, 1,15,38495.5127740333, 8, 6,60
324,0.0,0.0, 1, 1,15,0.0, 1, 1,15
325,3652341.99679772,0.0, 1, 1,15,38495.5127740339, 8, 6,60
408,103312071.477701,0.0, 1, 1,15,166632.37335113, 1, 7,15
461,62089590.5341956,0.0, 1, 1,15,100144.500861606, 1, 7,15
4,120, 4
8,50145705.9237973,7056.14998927729, 1,15,15,23520.4999642576, 1, 1,15
9,30137101.1472632,4240.68027400515, 1,15,15,14135.6009133505, 1, 1,15
71,33223081.6864225,0.0, 1, 1,15,42054.5337802819, 1,19,15
93,19966761.9542345,0.0, 1, 1,15,25274.3822205501, 1,19,15
125,40372352.4290706,6007.79054004027, 1, 1,15,30038.9527002013, 1,19,15
137,24263406.9317279,3610.62603150715, 1, 1,15,18053.1301575358, 1,19,15
138,536322918.507741,0.0, 1, 1,15,1658530.31946572,29, 9,15
139,0.0,0.0, 1, 1,15,0.0, 1, 1,15
140,26.4817290321112,18.9390258668976, 1, 7,30,36.8463975187709,12,11,60
141,26.2823630741172,21.3426745691084, 5, 9,30,33.1446113991405,12,21,45
142,26.1216146048579,19.9999999999999, 1, 7,60,36.6959077645387,11,11,45
143,26.3016718184845,19.4695129334488, 1, 7,30,36.7123375313912,11,11,45
144,26.0423383409537,20.9679599777294, 5, 9,45,33.1230765043658,12,19,60
145,26.1623507075355,21.162294971633, 5, 9,30,33.101831252233,12,19,60
146,138169715.1251,5374.85324095394, 7, 9,17,81657.6889999897,11,22,60
147,0.0,0.0, 1, 1,15,0.0, 1, 1,15
148,0.36698369296372,0.359770817136475,19,12,60,0.377878061853269, 1,10,52
149,83276282.5718591,927.802556855475,19,19,60,49453.6538769118,13, 2,60
150,0.0,0.0, 1, 1,15,0.0, 1, 1,15
151,0.366913656387423,0.354337480533503,19,12,60,0.376051375358182, 1, 2,60
224,26.1216146048579,19.9999999999999, 1, 7,60,36.6959077645387,11,11,45
225,29.8002080939544,12.2151378237919,11,16,60,57.4179068266119,20,23,45
258,26.0423383409537,20.9618269470879, 5, 9,30,33.1230765043658,12,19,60
259,29.344871120774,14.1286068521391,11,16,60,49.0273593977474,20,24,30
260,11644045.6272582,0.0, 1, 1,15,145847.186257089, 1, 7,30
291,0.0,0.0, 1, 1,15,0.0, 1, 1,15
322,11644045.6272585,0.0, 1, 1,15,145847.186257089, 1, 7,30
323,0.0,0.0, 1, 1,15,0.0, 1, 1,15
324,0.0,0.0, 1, 1,15,0.0, 1, 1,15
325,0.0,0.0, 1, 1,15,0.0, 1, 1,15
408,99979424.0106783,0.0, 1, 1,15,166632.37335113, 1, 6,15
461,60086700.5169635,0.0, 1, 1,15,100144.500861606, 1, 6,15
4,151, 5
8,51378180.1219244,7056.14998927729, 1, 8,15,23520.4999642576, 1, 1,15
9,30877806.6351227,4240.68027400515, 1, 8,15,14135.6009133505, 1, 1,15
71,34673963.1018422,0.0, 1, 1,15,42054.5337802819, 1,19,15
93,20838728.1408435,0.0, 1, 1,15,25274.3822205501, 1,19,15
125,41886315.6451608,6007.79054004027, 1, 1,15,30038.9527002013, 1,18,15
137,25173284.6916677,3610.62603150715, 1, 1,15,18053.1301575358, 1,18,15
138,630410423.303176,0.0, 1, 1,15,1592638.58403253, 6, 9,15
139,0.0,0.0, 1, 1,15,0.0, 1, 1,15
140,32.377292329268,23.1859286286642,30, 6,15,43.3369107027136,26,11,60
141,31.9989722178351,25.7071318161682,30, 7,15,38.5808571741468,26,22,30
142,31.9369727505509,22.8999709940821,30, 5,60,43.0135125147361,26,11,45
143,32.1571325399094,23.0605939094773,30, 5,60,43.1690182087023,26,11,45
144,31.727887367201,25.5346658379814,30, 5,60,38.4604885383442,26,19,60
145,31.8634297925181,25.6507473403236,30, 6,60,38.5014359774446,26,21,60
146,155068700.440108,7363.01704516559,12, 8,47,86502.4978994544, 8, 1,60
147,0.0,0.0, 1, 1,15,0.0, 1, 1,15
148,0.366998049414489,0.358592155536193,25,15,60,0.378246490391499, 6, 9,56
149,93372519.8848628,2180.55056414342,11,18,60,55584.0812795948,17, 5,60
150,0.0,0.0, 1, 1,15,0.0, 1, 1,15
151,0.366770624227048,0.354711162606447,25,15,60,0.377622569800835, 6, 6,50
224,31.9369727505509,22.8999709940821,30, 5,60,43.0135125147361,26,11,45
225,32.8281097249303,12.5879990864867, 8,15,60,62.4179625295992,29, 4,30
258,31.727887367201,25.5346658379814,30, 5,60,38.4604885383442,26,19,60
259,32.3662670324845,15.107947108284, 8,16,60,54.9239945886854,28,15,30
260,0.0,0.0, 1, 1,15,0.0, 1, 1,15
291,0.0,0.0, 1, 1,15,0.0, 1, 1,15
322,0.0,0.0, 1, 1,15,0.0, 1, 1,15
323,0.0,0.0, 1, 1,15,0.0, 1, 1,15
324,0.0,0.0, 1, 1,15,0.0, 1, 1,15
325,0.0,0.0, 1, 1,15,0.0, 1, 1,15
408,103312071.477701,0.0, 1, 1,15,166632.37335113, 1, 6,15
461,62089590.5341956,0.0, 1, 1,15,100144.500861606, 1, 6,15
4,181, 6
8,49769377.9243692,7056.14998927729, 1, 8,15,23520.4999642576, 1, 1,15
9,29910931.5326496,4240.68027400515, 1, 8,15,14135.6009133505, 1, 1,15
71,33517463.4228844,0.0, 1, 1,15,42054.5337802819, 1,19,15
93,20143682.6297784,0.0, 1, 1,15,25274.3822205501, 1,19,15
125,40516539.4020317,6007.79054004027, 1, 1,15,30038.9527002013, 1,18,15
137,24350061.9564841,3610.62603150715, 1, 1,15,18053.1301575358, 1,18,15
138,677174088.213804,0.0, 1, 1,15,1677100.4995192, 1, 8,60
139,0.0,0.0, 1, 1,15,0.0, 1, 1,15
140,38.6213236392886,29.5055436575869,15, 6,15,50.1950096130393,10,11,60
141,38.0196134273941,31.4905005736059,15, 7,15,45.3481296870134,11,21,15
142,38.1427970832764,29.1825391318485,15, 5,60,49.8211134125681,10,11,45
143,38.3820603612825,29.3506586861956,15, 5,60,50.0038082275263,10,11,45
144,37.7043939031449,31.29240903135,15, 5,60,45.2161994396302,11,19,45
145,37.8620036652695,31.4304937433485,15, 6,60,45.2485416613709,11,20,60
146,164447152.998163,9247.20470389857, 2, 8,32,90430.9233060033,11,10,60
147,0.0,0.0, 1, 1,15,0.0, 1, 1,15
148,0.367841893897808,0.358095176039553,14,15,60,0.378205659416326, 3,10,37
149,97748445.3507562,5181.52288616993,18, 8,45,53884.8055256275,12, 6,60
150,0.0,0.0, 1, 1,15,0.0, 1, 1,15
151,0.367344720265273,0.356154052813696,15,15,60,0.380093321414535,12, 3,37
224,38.1427970832764,29.1825391318485,15, 5,60,49.8211134125681,10,11,45
225,33.4850240091581,11.1784690835578, 1,15,15,64.5890497743277,14, 5,60
258,37.7043939031449,31.29240903135,15, 5,60,45.2161994396302,11,19,45
259,33.4046958536286,13.5921565424017, 8,16,60,57.2994444549365,14, 5,60
260,0.0,0.0, 1, 1,15,0.0, 1, 1,15
291,0.0,0.0, 1, 1,15,0.0, 1, 1,15
322,0.0,0.0, 1, 1,15,0.0, 1, 1,15
323,0.0,0.0, 1, 1,15,0.0, 1, 1,15
324,0.0,0.0, 1, 1,15,0.0, 1, 1,15
325,0.0,0.0, 1, 1,15,0.0, 1, 1,15
408,99979424.0106783,0.0, 1, 1,15,166632.37335113, 1, 6,15
461,60086700.5169635,0.0, 1, 1,15,100144.500861606, 1, 6,15
4,212, 7
8,51754508.1213526,7056.14998927729, 1,15,15,23520.4999642576, 1, 1,15
9,31103976.2497363,4240.68027400515, 1,15,15,14135.6009133505, 1, 1,15
71,34379581.3653802,0.0, 1, 1,15,42054.5337802819, 1,19,15
93,20661807.4652997,0.0, 1, 1,15,25274.3822205501, 1,19,15
125,41742128.6721998,6007.79054004027, 1, 1,15,30038.9527002013, 1,19,15
137,25086629.6669115,3610.62603150715, 1, 1,15,18053.1301575358, 1,19,15
138,509602395.201301,0.0, 1, 1,15,1453706.32529508,12, 9,30
139,0.0,0.0, 1, 1,15,0.0, 1, 1,15
140,27.7724067720108,24.0823417023227,12, 4,30,40.6000052707059, 1,12,30
141,26.1214038196041,24.5636269805096,17,22,15,36.0447920148632, 1,14,15
142,26.6149215212612,23.9425561599143, 2,14,15,40.3096891676778, 1,12,30
143,27.193664146636,24.0524173596912,12, 4,30,40.4548472191918, 1,12,30
144,25.5745046435145,23.9594499328497, 3,14,15,35.9794127890174, 1,13,60
145,25.8479542315593,24.2856192790641,17,21,60,35.9784565003331, 1,13,60
146,33678399.0488581,0.0, 1,14, 2,55919.2598287612, 1,10,45
147,22756500.8200959,0.0, 1, 1,15,52710.3740158787,30,14,30
148,0.351610308960569,0.341532385927903,20,15,60,0.367230478228924, 1,10,22
149,15018621.4610032,0.0, 1,14, 2,34430.7335666576, 1, 3,60
150,13566577.9019573,0.0, 1, 1,15,30495.7625013971,30,14,45
151,0.350395722379194,0.341527327471284,20,15,60,0.365321165912901, 1, 1,15
224,26.6149215212612,23.3365438936223, 2,14, 5,40.3096891676778, 1,12,30
225,69.73974262007,31.8909601402539,12,11,45,91.0297632309707, 2,14, 3
258,25.5745046435145,23.5590356073026,26,14, 3,35.9794127890174, 1,13,60
259,73.3025679364998,45.2119805317076, 1,13,60,90.0882083784504, 2,14, 3
260,0.0,0.0, 1, 1,15,0.0, 1, 1,15
291,475129230.413853,0.0, 1, 1,15,2176459.63351681, 1,14,45
322,5.359378860703146E-006,0.0, 1, 1,15,2.177330316044390E-007, 1,14,60
323,0.0,0.0, 1, 1,15,0.0, 1, 1,15
324,175597028.680006,0.0, 1, 1,15,1124493.07137493, 1,14,45
325,1.149634840658109E-006,0.0, 1, 1,15,4.450839696801268E-008, 6,15,30
408,103312071.477701,0.0, 1, 1,15,166632.37335113, 1, 6,15
461,62089590.5341956,0.0, 1, 1,15,100144.500861606, 1, 6,15
4,243, 8
8,51378180.1219244,7056.14998927729, 1, 8,15,23520.4999642576, 1, 1,15
9,30877806.6351227,4240.68027400515, 1, 8,15,14135.6009133505, 1, 1,15
71,34673963.1018422,0.0, 1, 1,15,42054.5337802819, 1,19,15
93,20838728.1408435,0.0, 1, 1,15,25274.3822205501, 1,19,15
125,41886315.6451608,6007.79054004027, 1, 1,15,30038.9527002013, 1,18,15
137,25173284.6916677,3610.62603150715, 1, 1,15,18053.1301575358, 1,18,15
138,534058803.368694,0.0, 1, 1,15,1475809.2759388,17, 9,30
139,0.0,0.0, 1, 1,15,0.0, 1, 1,15
140,27.7753108692869,23.2230824182427,26, 7,15,38.4208142492759, 7,12,15
141,25.9609317877787,24.4447661336065,26, 8,15,29.8476538813973, 7,14,15
142,26.5443105949512,23.020032353855,26, 6,60,38.4900526337283, 7,11,60
143,27.159810732119,23.1224292840046,26, 6,60,38.4412332937692, 7,12,15
144,25.4222809621361,23.9575740950351,25,14,15,30.0191536966833, 7,13,60
145,25.6916063749574,24.3871470735488,25,21,60,29.8666044670074, 7,13,60
146,33202457.6934289,0.0, 1,14, 1,51134.1220231259,27,11,60
147,24449846.6246389,0.0, 1, 1,15,52158.6600378594, 7,16,15
148,0.350957629615614,0.339114483980072, 7,15,60,0.361504364038147,28,11, 7
149,14291426.4122003,0.0, 1,13,45,20194.8582942753,28, 6,60
150,14626999.6742916,0.0, 1, 1,15,31107.1585845393, 7,15,60
151,0.3496532964353,0.339107299513978, 7,15,60,0.358101106144999,28, 6,60
224,26.5443105949512,23.020032353855,26, 6,60,38.4900526337283, 7,11,60
225,68.6671830428301,37.3052878557218,28,11,60,92.7399740574293, 2, 5,60
258,25.4222809621361,23.5859345238815, 2,14, 3,30.0191536966833, 7,13,60
259,72.5504901938447,51.724883057556,30,13,60,93.4521324272032, 2, 5,60
260,0.0,0.0, 1, 1,15,0.0, 1, 1,15
291,500601666.662972,0.0, 1, 1,15,1800903.83826502, 7,14,45
322,5.633971795759862E-006,0.0, 1, 1,15,1.768057700246573E-007,24,14,45
323,0.0,0.0, 1, 1,15,0.0, 1, 1,15
324,172488536.884415,0.0, 1, 1,15,491811.552133046, 7,14,45
325,1.630665620482137E-006,0.0, 1, 1,15,4.711750989372376E-008,23,14,45
408,103312071.477701,0.0, 1, 1,15,166632.37335113, 1, 6,15
461,62089590.5341956,0.0, 1, 1,15,100144.500861606, 1, 6,15
4,273, 9
8,49957541.9240833,7056.14998927729, 1, 8,15,23520.4999642576, 1, 1,15
9,30024016.3399564,4240.68027400515, 1, 8,15,14135.6009133505, 1, 1,15
71,33370272.5546534,0.0, 1, 1,15,42054.5337802819, 1,19,15
93,20055222.2920065,0.0, 1, 1,15,25274.3822205501, 1,19,15
125,40444445.9155512,6007.79054004027, 1, 1,15,30038.9527002013, 1,18,15
137,24306734.444106,3610.62603150715, 1, 1,15,18053.1301575358, 1,18,15
138,425282281.117715,0.0, 1, 1,15,1575840.7043327,16, 9,30
139,0.0,0.0, 1, 1,15,0.0, 1, 1,15
140,26.1432644533391,22.3843403690593,30, 7,30,33.5867161524469, 7,14,15
141,25.2034140813221,23.8569473523089,30, 8,60,27.5512315211448, 7,14,15
142,25.2251005911177,22.1421219390163,30, 7,30,33.6498043514239, 7,11,60
143,25.6841825222284,22.2632311540378,30, 7,30,33.5859953464807, 7,11,60
144,24.7990704002293,23.7577792676829,30, 7,60,27.7032529372163, 7,13,60
145,25.0012422407757,23.8231342298536,30, 7,60,27.5765418349238, 7,13,60
146,51772077.2873038,0.0, 1,14, 2,50205.9817443546, 9,11,60
147,2649399.38064177,0.0, 1, 1,15,25165.0081959122,20,18,60
148,0.354298824651533,0.34256467665857, 6,15,60,0.364086650298389,16,10,52
149,28724148.8848611,0.0, 1,14, 1,29751.0778737983,15,24,60
150,1583839.9361626,0.0, 1, 1,15,16322.4552268836,20,18,60
151,0.353805485212412,0.342568368392596, 6,15,60,0.362797364701742,30,24,60
224,25.2251005911177,22.1421219390163,30, 7,30,33.6498043514239, 7,11,60
225,61.1301551227453,26.8395650750225,16,11,60,87.6882700608138, 9, 6,60
258,24.7990704002293,23.5611630439486,21,14, 3,27.7032529372163, 7,13,60
259,61.910904410654,35.1617532392433,16,13,60,85.0835818763513, 9, 6,60
260,0.0,0.0, 1, 1,15,0.0, 1, 1,15
291,294628244.331643,0.0, 1, 1,15,1148971.95239022, 7,14,45
322,6.854176756714853E-006,0.0, 1, 1,15,1.171542862721253E-007, 5,14,45
323,0.0,0.0, 1, 1,15,0.0, 1, 1,15
324,95938391.2551238,0.0, 1, 1,15,273404.229673141, 7,14,45
325,1.995674694412728E-006,0.0, 1, 1,15,3.166746864735615E-008,11,14,45
408,99979424.0106783,0.0, 1, 1,15,166632.37335113, 1, 6,15
461,60086700.5169635,0.0, 1, 1,15,100144.500861606, 1, 6,15
4,304,10
8,51566344.1216385,7056.14998927729, 1,15,15,23520.4999642576, 1, 1,15
9,30990891.4424295,4240.68027400515, 1,15,15,14135.6009133505, 1, 1,15
71,34526772.2336112,0.0, 1, 1,15,42054.5337802819, 1,19,15
93,20750267.8030716,0.0, 1, 1,15,25274.3822205501, 1,19,15
125,41814222.1586803,6007.79054004027, 1, 1,15,30038.9527002013, 1,19,15
137,25129957.1792896,3610.62603150715, 1, 1,15,18053.1301575358, 1,19,15
138,404310302.263587,0.0, 1, 1,15,1367307.39766207, 1, 9,30
139,0.0,0.0, 1, 1,15,0.0, 1, 1,15
140,26.4241433227971,19.1693554316824,24, 7,30,34.0513608614579, 5,11,45
141,26.5765021115051,22.0835626991239,29, 8,30,31.2492708200452, 5,22,30
142,26.1494024580032,19.9999999999999,24, 6,30,34.0239135835068, 5,11,30
143,26.2867728904001,19.5846777158412,24, 7,30,34.0160379512309, 5,11,30
144,26.4315040639454,21.7386668505692,31,10,30,31.3447272664163, 5,19,60
145,26.5040030877253,21.9429857635825,31,10,15,31.2759825549229, 5,21,60
146,117926625.71311,2635.55684437382,14,18,60,68871.243913668,15,24,60
147,0.0,0.0, 1, 1,15,0.0, 1, 1,15
148,0.363211994694301,0.356200211224307,22,15,60,0.373289281111697,24,10,37
149,73267268.4161903,449.570593818837,14,18,60,45105.3564563062,15,24,60
150,0.0,0.0, 1, 1,15,0.0, 1, 1,15
151,0.363568330960937,0.354036021705658,27,15,60,0.372553119493843,24, 6,60
224,26.1494024580032,19.9999999999999,24, 6,30,34.0239135835068, 5,11,30
225,37.3803348707705,14.9812609172898,19,14,60,67.109166532517,28,24,30
258,26.4315040639454,21.7191686191287,31,10,15,31.3447272664163, 5,19,60
259,36.6061797934033,16.5781301216675,19,15,45,60.6698752786857,28,24,30
260,2872848.89270365,0.0, 1, 1,15,99295.7682351647,24, 7,30
291,0.0,0.0, 1, 1,15,0.0, 1, 1,15
322,2872848.89270373,0.0, 1, 1,15,99295.7682351659,24, 7,30
323,0.0,0.0, 1, 1,15,0.0, 1, 1,15
324,0.0,0.0, 1, 1,15,0.0, 1, 1,15
325,0.0,0.0, 1, 1,15,0.0, 1, 1,15
408,103312071.477701,0.0, 1, 1,15,166632.37335113, 1, 6,15
461,62089590.5341956,0.0, 1, 1,15,100144.500861606, 1, 6,15
4,334,11
8,49769377.9243692,7056.14998927729, 1, 9,15,23520.4999642576, 1, 1,15
9,29910931.5326496,4240.68027400515, 1, 9,15,14135.6009133505, 1, 1,15
71,33517463.4228844,0.0, 1, 1,15,42054.5337802819, 1,20,15
93,20143682.6297784,0.0, 1, 1,15,25274.3822205501, 1,20,15
125,40516539.4020317,6007.79054004027, 1, 1,15,30038.9527002013, 1,19,15
137,24350061.9564841,3610.62603150715, 1, 1,15,18053.1301575358, 1,19,15
138,258911296.958929,0.0, 1, 1,15,1001508.14159828,12, 9,45
139,0.0,0.0, 1, 1,15,0.0, 1, 1,15
140,20.1465357732799,17.4988089930366,27, 7,60,25.0511651979432, 7,15,30
141,20.8098181286499,19.6026747290782,11, 8,30,24.0441375768969, 7,23,60
142,20.6585519543706,19.9999999999998, 9, 3,15,24.9523367454768, 7,15,15
143,20.4025438638253,18.7494044965183,27, 7,60,25.0016954638671, 7,15,30
144,20.7734023520898,19.9999999999999,24, 1,60,24.340452196913, 7,22,60
145,20.7916102403698,19.8013373645391,11, 8,30,24.182110457447, 7,23,60
146,123346294.906717,7062.26718221937, 6, 9,48,82236.2185125569,30,24,60
147,0.0,0.0, 1, 1,15,0.0, 1, 1,15
148,0.366174422107891,0.354109624147985, 5,15,60,0.381060031130829,23, 8,60
149,74889573.5384527,4240.19714751761, 6, 9,60,48310.1585623509,23, 7,60
150,0.0,0.0, 1, 1,15,0.0, 1, 1,15
151,0.366318593635087,0.352413169786445, 6,15,60,0.381069359096446,23, 8,60
224,20.6585519543706,19.9999999999998, 9, 3,15,24.9523367454768, 7,15,15
225,35.9973250855695,15.5077365667923,23,13,30,60.4379629809337,19, 9,45
258,20.7734023520898,19.9999999999999,24, 1,60,24.340452196913, 7,22,60
259,35.6479956204527,15.3837249535317,23,13,15,60.8667375079022,19,11,30
260,197024265.892008,0.0, 1, 1,15,296949.702535199,27, 6,60
291,0.0,0.0, 1, 1,15,0.0, 1, 1,15
322,197024265.892013,0.0, 1, 1,15,296949.702535209,27, 6,60
323,19462921.8204445,0.0, 1, 1,15,43993.7543432353,23, 6,60
324,0.0,0.0, 1, 1,15,0.0, 1, 1,15
325,19462922.4484418,0.0, 1, 1,15,43993.7543432353,23, 6,60
408,99979424.0106783,0.0, 1, 1,15,166632.37335113, 1, 7,15
461,60086700.5169635,0.0, 1, 1,15,100144.500861606, 1, 7,15
4,365,12
8,51754508.1213526,7056.14998927729, 1, 9,15,23520.4999642576, 1, 1,15
9,31103976.2497363,4240.68027400515, 1, 9,15,14135.6009133505, 1, 1,15
71,34379581.3653802,0.0, 1, 1,15,42054.5337802819, 1,20,15
93,20661807.4652997,0.0, 1, 1,15,25274.3822205501, 1,20,15
125,41742128.6721998,6007.79054004027, 1, 1,15,30038.9527002013, 1,19,15
137,25086629.6669115,3610.62603150715, 1, 1,15,18053.1301575358, 1,19,15
138,258052463.80709,0.0, 1, 1,15,940658.196410591,31, 9,45
139,0.0,0.0, 1, 1,15,0.0, 1, 1,15
140,18.794407178043,17.1120760108677,18, 6,60,21.4906306314232,13,11,30
141,19.8680126820738,19.4379911503728,17, 8,60,20.2732262840146,28,23,45
142,20.0199825910057,19.9999999999998,17, 5,45,21.0981131317584,13,11,15
143,19.4071948845244,18.5560380054339,18, 6,60,21.2940453115019,13,11,15
144,20.0094358536539,19.9999999999999,18, 6,15,20.467070071824,28,20,60
145,19.9387242678639,19.7189955751864,17, 8,60,20.3419675894406,28,20,60
146,197371393.679228,29419.6844542437,11,15,60,111652.289694526,31, 9,60
147,0.0,0.0, 1, 1,15,0.0, 1, 1,15
148,0.37642771983275,0.3616176716049,29,15,60,0.394579755131954,31,24,60
149,118737012.893008,17736.3238285872,11,15,60,66895.9508990068,31, 9,60
150,0.0,0.0, 1, 1,15,0.0, 1, 1,15
151,0.376412965152905,0.361618550158848,29,15,60,0.394576156522926,31,24,60
224,20.0199825910057,19.9999999999998,17, 5,45,21.0981131317584,13,11,15
225,20.1665006976963,7.72042852240168,15,17,60,40.2504678417648,25, 4,30
258,20.0094358536539,19.9999999999999,18, 6,15,20.467070071824,28,20,60
259,20.268194694292,7.38567864651422,16,19,60,40.8545284345899,25, 4,15
260,472732329.149051,0.0, 1,10,30,385413.495090567,18, 6,60
291,0.0,0.0, 1, 1,15,0.0, 1, 1,15
322,472732329.149062,0.0, 1,10,30,385413.495090569,18, 6,60
323,81237973.6719974,0.0, 6,20,15,71379.7930180406,17, 8,60
324,0.0,0.0, 1, 1,15,0.0, 1, 1,15
325,81237973.6719999,0.0, 6,20,15,71379.7930180411,17, 8,60
408,103312071.477701,0.0, 1, 1,15,166632.37335113, 1, 7,15
461,62089590.5341956,0.0, 1, 1,15,100144.500861606, 1, 7,15
End of Data
 Number of Records Written=         384
