Program Version,EnergyPlus, Version 8.4.0-09f5359d8a, YMD=2023.08.02 14:39
1,5,Environment Title[],Latitude[deg],Longitude[deg],Time Zone[],Elevation[m]
2,6,Day of Simulation[],Month[],Day of Month[],DST Indicator[1=yes 0=no],Hour[],StartMinute[],EndMinute[],DayType
3,3,Cumulative Day of Simulation[],Month[],Day of Month[],DST Indicator[1=yes 0=no],DayType  ! When Daily Report Variables Requested
4,2,Cumulative Days of Simulation[],Month[]  ! When Monthly Report Variables Requested
5,1,Cumulative Days of Simulation[] ! When Run Period Report Variables Requested
8,9,PERIM,Zone People Total Heating Energy [J] !Monthly  [Value,Min,Day,Hour,Minute,Max,Day,Hour,Minute]
9,9,CORE,Zone People Total Heating Energy [J] !Monthly  [Value,Min,Day,Hour,Minute,Max,Day,Hour,Minute]
71,9,PERIM,Zone Lights Electric Energy [J] !Monthly  [Value,Min,Day,Hour,Minute,Max,Day,Hour,Minute]
93,9,CORE,Zone Lights Electric Energy [J] !Monthly  [Value,Min,Day,Hour,Minute,Max,Day,Hour,Minute]
125,9,PERIM,Zone Electric Equipment Electric Energy [J] !Monthly  [Value,Min,Day,Hour,Minute,Max,Day,Hour,Minute]
137,9,CORE,Zone Electric Equipment Electric Energy [J] !Monthly  [Value,Min,Day,Hour,Minute,Max,Day,Hour,Minute]
138,9,PERIM,Zone Windows Total Transmitted Solar Radiation Energy [J] !Monthly  [Value,Min,Day,Hour,Minute,Max,Day,Hour,Minute]
139,9,CORE,Zone Windows Total Transmitted Solar Radiation Energy [J] !Monthly  [Value,Min,Day,Hour,Minute,Max,Day,Hour,Minute]
140,9,PERIM,Zone Mean Radiant Temperature [C] !Monthly [Value,Min,Day,Hour,Minute,Max,Day,Hour,Minute]
141,9,CORE,Zone Mean Radiant Temperature [C] !Monthly [Value,Min,Day,Hour,Minute,Max,Day,Hour,Minute]
142,9,PERIM,Zone Mean Air Temperature [C] !Monthly [Value,Min,Day,Hour,Minute,Max,Day,Hour,Minute]
143,9,PERIM,Zone Operative Temperature [C] !Monthly [Value,Min,Day,Hour,Minute,Max,Day,Hour,Minute]
144,9,CORE,Zone Mean Air Temperature [C] !Monthly [Value,Min,Day,Hour,Minute,Max,Day,Hour,Minute]
145,9,CORE,Zone Operative Temperature [C] !Monthly [Value,Min,Day,Hour,Minute,Max,Day,Hour,Minute]
146,9,PERIM,Zone Infiltration Total Heat Loss Energy [J] !Monthly  [Value,Min,Day,Hour,Minute,Max,Day,Hour,Minute]
147,9,PERIM,Zone Infiltration Total Heat Gain Energy [J] !Monthly  [Value,Min,Day,Hour,Minute,Max,Day,Hour,Minute]
148,9,PERIM,Zone Infiltration Air Change Rate [ach] !Monthly [Value,Min,Day,Hour,Minute,Max,Day,Hour,Minute]
149,9,CORE,Zone Infiltration Total Heat Loss Energy [J] !Monthly  [Value,Min,Day,Hour,Minute,Max,Day,Hour,Minute]
150,9,CORE,Zone Infiltration Total Heat Gain Energy [J] !Monthly  [Value,Min,Day,Hour,Minute,Max,Day,Hour,Minute]
151,9,CORE,Zone Infiltration Air Change Rate [ach] !Monthly [Value,Min,Day,Hour,Minute,Max,Day,Hour,Minute]
224,9,PERIM,Zone Air Temperature [C] !Monthly [Value,Min,Day,Hour,Minute,Max,Day,Hour,Minute]
225,9,PERIM,Zone Air Relative Humidity [%] !Monthly [Value,Min,Day,Hour,Minute,Max,Day,Hour,Minute]
258,9,CORE,Zone Air Temperature [C] !Monthly [Value,Min,Day,Hour,Minute,Max,Day,Hour,Minute]
259,9,CORE,Zone Air Relative Humidity [%] !Monthly [Value,Min,Day,Hour,Minute,Max,Day,Hour,Minute]
260,9,PERIM IDEAL LOADS AIR,Zone Ideal Loads Supply Air Total Heating Energy [J] !Monthly  [Value,Min,Day,Hour,Minute,Max,Day,Hour,Minute]
291,9,PERIM IDEAL LOADS AIR,Zone Ideal Loads Supply Air Total Cooling Energy [J] !Monthly  [Value,Min,Day,Hour,Minute,Max,Day,Hour,Minute]
322,9,PERIM IDEAL LOADS AIR,Zone Ideal Loads Zone Total Heating Energy [J] !Monthly  [Value,Min,Day,Hour,Minute,Max,Day,Hour,Minute]
323,9,CORE IDEAL LOADS AIR,Zone Ideal Loads Supply Air Total Heating Energy [J] !Monthly  [Value,Min,Day,Hour,Minute,Max,Day,Hour,Minute]
324,9,CORE IDEAL LOADS AIR,Zone Ideal Loads Supply Air Total Cooling Energy [J] !Monthly  [Value,Min,Day,Hour,Minute,Max,Day,Hour,Minute]
325,9,CORE IDEAL LOADS AIR,Zone Ideal Loads Zone Total Heating Energy [J] !Monthly  [Value,Min,Day,Hour,Minute,Max,Day,Hour,Minute]
408,9,DHW PERIM,Water Use Equipment Heating Energy [J] !Monthly  [Value,Min,Day,Hour,Minute,Max,Day,Hour,Minute]
461,9,DHW CORE,Water Use Equipment Heating Energy [J] !Monthly  [Value,Min,Day,Hour,Minute,Max,Day,Hour,Minute]
End of Data Dictionary
1,ARCHSIM,  37.57, 126.97,   9.00,  87.10
4,31, 1
8,51566344.1076803,7056.14998736727, 1,16,15,23520.4999578909, 1, 1,15
9,30990891.4367642,4240.68027322993, 1,16,15,14135.6009107664, 1, 1,15
71,34526772.2242654,0.0, 1, 1,15,42054.5337688982, 1,20,15
93,20750267.7992783,0.0, 1, 1,15,25274.3822159298, 1,20,15
125,41814222.1473617,6007.79053841402, 1, 1,15,30038.9526920701, 1,20,15
137,25129957.1746959,3610.62603084711, 1, 1,15,18053.1301542355, 1,20,15
138,1186580418.5298,0.0, 1, 1,15,2107233.54376727,14,12,30
139,0.0,0.0, 1, 1,15,0.0, 1, 1,15
140,27.7931560291132,17.4084448477298,22, 8,45,43.1616765180917, 4,15,45
141,26.4587583455565,19.9337357914537,22, 9,30,32.3267842092605, 4,22,30
142,27.1357263815535,19.9999999999998,14, 7,15,42.6841041034297, 4,15,30
143,27.4644412053334,18.7042224238649,22, 8,45,42.9123833399916, 4,15,30
144,25.7547287057044,20.,22, 7,60,31.7511736052106, 4,20,60
145,26.1067435256305,19.9668678957269,22, 9,30,32.0226762237804, 4,22,15
146,288117433.386304,15765.2878112291, 3, 9,33,145527.529739264,14,15,15
147,0.0,0.0, 1, 1, 7,0.0, 1, 1, 7
148,0.387934866213184,0.371907850288533, 6, 8,30,0.407498540374232,14,14,60
149,165628976.234552,9589.93767304432, 3,12,18,76573.7447439069,10,24,60
150,0.0,0.0, 1, 1, 7,0.0, 1, 1, 7
151,0.386186389012216,0.369985271096053, 6,15,60,0.39834797120238,11, 1, 7
224,27.1357263815535,19.9999999999998,14, 7,15,42.6841041034297, 4,15,30
225,14.7200839342699,3.36396939743712,16,15,30,33.5508421390312, 2, 7,60
258,25.7547287057044,20.,22, 7,60,31.7536557812647, 4,20,60
259,14.8258009463226,5.20799864429371,14,19,60,28.8754991337526, 2, 7,60
260,50389863.807328,0.0, 1, 1, 7,344023.661283532,22, 8,45
291,0.0,0.0, 1, 1, 7,0.0, 1, 1, 7
322,50389863.8073291,0.0, 1, 1, 7,344023.661283547,22, 8,45
323,1203804.93794476,0.0, 1, 1, 7,47471.246586892,22, 8,60
324,0.0,0.0, 1, 1, 7,0.0, 1, 1, 7
325,1203804.9379448,0.0, 1, 1, 7,47471.2465868936,22, 8,60
408,103312071.449735,0.0, 1, 1, 7,166632.373306025, 1, 7,15
461,62089590.5228455,0.0, 1, 1, 7,100144.500843299, 1, 7,15
4,59, 2
8,46551773.5166579,7056.14998736727, 1, 9,15,23520.4999578909, 1, 1,15
9,27977181.3225888,4240.68027322993, 1, 9,15,14135.6009107664, 1, 1,15
71,31204464.0565225,0.0, 1, 1,15,42054.5337688982, 1,20,15
93,18753591.6042199,0.0, 1, 1,15,25274.3822159298, 1,20,15
125,37776986.9055474,6007.79053841402, 1, 1,15,30038.9526920701, 1,19,15
137,22703616.4819667,3610.62603084711, 1, 1,15,18053.1301542355, 1,19,15
138,1049134355.82768,0.0, 1, 1,15,2106158.8706134, 9,12,30
139,0.0,0.0, 1, 1,15,0.0, 1, 1,15
140,28.9141456763136,17.5968282821977, 4, 7,30,45.4308643916015,28,15,30
141,27.4119774996585,19.8369991999999, 4, 9,30,35.6532365292059,28,21,45
142,28.2673302775111,19.9999999999999, 4, 6,45,44.8320821476102,28,15,15
143,28.5907379769124,18.7984141410988, 4, 7,30,45.1229529669893,28,15,30
144,26.7675245834517,20., 4, 8,15,35.0695694274906,28,20,60
145,27.0897510415551,19.9184995999999, 4, 9,30,35.348996657359,28,20,60
146,246092926.486723,11646.29878576,26,10, 2,145405.21763251, 7,15,15
147,0.0,0.0, 1, 1, 7,0.0, 1, 1, 7
148,0.385420264341226,0.369454434744587, 3,15,60,0.408299363454946, 7,15,30
149,140847355.063347,7186.04731168319,21,10,30,84182.981933425, 8, 1,45
150,0.0,0.0, 1, 1, 7,0.0, 1, 1, 7
151,0.383559993174024,0.369722178251732,23,15,60,0.403154198426097, 7,24,52
224,28.2673302775111,19.9999999999999, 4, 6,45,44.8320821476102,28,15,15
225,15.02862071204,3.05753900444781, 9,15,30,38.1903173436395, 3,22,15
258,26.7675245834517,20., 4, 8,15,35.0703563236741,28,20,60
259,15.2469223182189,4.67717458133596, 9,17,60,36.8851211206031, 3,22,30
260,35559750.3354973,0.0, 1, 1, 7,298914.332281998, 4, 7,30
291,0.0,0.0, 1, 1, 7,0.0, 1, 1, 7
322,35559750.3354981,0.0, 1, 1, 7,298914.332282013, 4, 7,30
323,857032.330282749,0.0, 1, 1, 7,36790.3763403859, 4, 8,60
324,0.0,0.0, 1, 1, 7,0.0, 1, 1, 7
325,857032.33028278,0.0, 1, 1, 7,36790.3763403879, 4, 8,60
408,93314129.0513739,0.0, 1, 1, 7,166632.373306025, 1, 7,15
461,56080920.4722475,0.0, 1, 1, 7,100144.500843299, 1, 7,15
4,90, 3
8,51378180.1080172,7056.14998736727, 1, 9,15,23520.4999578909, 1, 1,15
9,30877806.6294781,4240.68027322993, 1, 9,15,14135.6009107664, 1, 1,15
71,34673963.0924566,0.0, 1, 1,15,42054.5337688982, 1,20,15
93,20838728.1370341,0.0, 1, 1,15,25274.3822159298, 1,20,15
125,41886315.6338226,6007.79053841402, 1, 1,15,30038.9526920701, 1,19,15
137,25173284.6870661,3610.62603084711, 1, 1,15,18053.1301542355, 1,19,15
138,1087362960.56057,0.0, 1, 1,15,1795936.08153698, 6,12,15
139,0.0,0.0, 1, 1,15,0.0, 1, 1,15
140,32.0371817170285,20.9152481628621, 9, 7,45,46.530345200696,19,15,30
141,30.9723995617957,25.195143139507, 9,10,30,37.0934722617434,19,22,30
142,31.2592892243083,20.1814282638598, 9, 7,45,46.1397745746843,19,15,15
143,31.6482354706685,20.548338213361, 9, 7,45,46.3292767594937,19,15,15
144,30.3570626284251,24.5263060970411, 9,10,30,36.68735222752,19,20,45
145,30.6647310951104,24.8607246182741, 9,10,30,36.875349574709,19,21,60
146,252466119.598502,12678.504143199,11,10, 2,116440.781406903, 7,14,30
147,0.0,0.0, 1, 1, 7,0.0, 1, 1, 7
148,0.381734420800445,0.371339928303094,26, 7,45,0.397958236320234, 7,14,30
149,148455614.312958,7418.38683917689,11,10,17,67741.4883092146, 8, 3,60
150,0.0,0.0, 1, 1, 7,0.0, 1, 1, 7
151,0.380653005078249,0.36808694091513,30,15,60,0.393042008467472, 8, 3,60
224,31.2592892243083,20.1814282638598, 9, 7,45,46.1397745746843,19,15,15
225,16.3961232138132,4.28381990047156, 7,14,60,34.1769309066665,28, 6,60
258,30.3570626284251,24.5114966665305, 9,10,15,36.68735222752,19,20,45
259,16.6209686233943,6.17436554607833, 7,17,60,28.112139622243,28, 7,60
260,0.0,0.0, 1, 1, 7,0.0, 1, 1, 7
291,0.0,0.0, 1, 1, 7,0.0, 1, 1, 7
322,0.0,0.0, 1, 1, 7,0.0, 1, 1, 7
323,0.0,0.0, 1, 1, 7,0.0, 1, 1, 7
324,0.0,0.0, 1, 1, 7,0.0, 1, 1, 7
325,0.0,0.0, 1, 1, 7,0.0, 1, 1, 7
408,103312071.449735,0.0, 1, 1, 7,166632.373306025, 1, 7,15
461,62089590.5228455,0.0, 1, 1, 7,100144.500843299, 1, 7,15
4,120, 4
8,50145705.9102237,7056.14998736727, 1,15,15,23520.4999578909, 1, 1,15
9,30137101.1417539,4240.68027322993, 1,15,15,14135.6009107664, 1, 1,15
71,33223081.6774296,0.0, 1, 1,15,42054.5337688982, 1,19,15
93,19966761.9505845,0.0, 1, 1,15,25274.3822159298, 1,19,15
125,40372352.4181423,6007.79053841402, 1, 1,15,30038.9526920701, 1,19,15
137,24263406.9272927,3610.62603084711, 1, 1,15,18053.1301542355, 1,19,15
138,760904416.891083,0.0, 1, 1,15,1495732.07635182, 2,11,60
139,0.0,0.0, 1, 1,15,0.0, 1, 1,15
140,31.0328770191162,19.5486741359446,26, 6,45,47.7480651023332,10,14,60
141,30.4392010351372,22.636421171863,26,10,30,40.2320845792775,10,21,60
142,30.4718079459262,20.,26, 7,30,47.2559185510867,10,14,45
143,30.7523424825212,19.7743370679723,26, 6,45,47.4943411104911,10,14,45
144,30.0482343560801,22.2556713846701,26,11,15,39.9410517400986,10,19,45
145,30.2437176956087,22.4475919542714,26,10,30,40.0312971225255,10,21,15
146,180830335.577681,14067.6209961561,27, 9,50,101603.202310774,11,22,60
147,0.0,0.0, 1, 1,15,0.0, 1, 1,15
148,0.372232688874166,0.364139496788053,19,12,60,0.385731582815005, 1,14,30
149,107492068.106647,7288.91634270171,19,19,60,62513.6719821098,11,22,60
150,0.0,0.0, 1, 1,15,0.0, 1, 1,15
151,0.371753056671613,0.357242544702591,19,12,60,0.383600466792028, 1, 3,22
224,30.4718079459262,20.,26, 7,30,47.2559185510867,10,14,45
225,25.5625543454668,7.89597420286262,11,16,60,53.6748424927944,20,23,45
258,30.0482343560801,22.2470634757564,26,11,15,39.9413412464211,10,19,60
259,25.2280148354962,10.0833633335874,11,16,60,45.2980593811443,25, 2,30
260,979762.815806365,0.0, 1, 1,15,73411.9706525446,26, 6,45
291,0.0,0.0, 1, 1,15,0.0, 1, 1,15
322,979762.815806388,0.0, 1, 1,15,73411.9706525446,26, 6,45
323,0.0,0.0, 1, 1,15,0.0, 1, 1,15
324,0.0,0.0, 1, 1,15,0.0, 1, 1,15
325,0.0,0.0, 1, 1,15,0.0, 1, 1,15
408,99979423.9836149,0.0, 1, 1,15,166632.373306025, 1, 6,15
461,60086700.5059795,0.0, 1, 1,15,100144.500843299, 1, 6,15
4,151, 5
8,51378180.1080172,7056.14998736727, 1, 8,15,23520.4999578909, 1, 1,15
9,30877806.6294781,4240.68027322993, 1, 8,15,14135.6009107664, 1, 1,15
71,34673963.0924566,0.0, 1, 1,15,42054.5337688982, 1,19,15
93,20838728.1370341,0.0, 1, 1,15,25274.3822159298, 1,19,15
125,41886315.6338226,6007.79053841402, 1, 1,15,30038.9526920701, 1,18,15
137,25173284.6870661,3610.62603084711, 1, 1,15,18053.1301542355, 1,18,15
138,554528577.97451,0.0, 1, 1,15,936031.030807036, 5,11,30
139,0.0,0.0, 1, 1,15,0.0, 1, 1,15
140,31.1478384315971,22.9451755601271,30, 6,45,39.5443568050306,17,14,30
141,31.029308097929,25.365046289983,30, 9,15,36.5322364544413,26,22,60
142,30.7376378595645,22.7202963606578,30, 6,60,39.1350572589251,26,14,45
143,30.9427381455808,22.8348393092257,30, 6,60,39.3295592869053,26,14,45
144,30.7929468447567,25.247568518284,30, 9,45,36.4831699774931,26,21,60
145,30.9111274713429,25.3077021801561,30, 9,30,36.4925719214594,26,21,60
146,142753102.620544,5850.14083024513,21,19,60,82910.694026937, 8, 1,60
147,0.0,0.0, 1, 1,15,0.0, 1, 1,15
148,0.365526355069631,0.357252825439394,23,15,60,0.37394153871422, 2,15,22
149,87107930.8456059,0.0,21,19,60,53906.920195022,17, 5,60
150,463.57186755703,0.0, 1, 1,15,463.57186755703,21,19,60
151,0.365620170856539,0.352478396135602,23,15,60,0.377381714216888, 1, 3,60
224,30.7376378595645,22.7202963606578,30, 6,60,39.1350572589251,26,14,45
225,34.446860221957,13.2637278218876, 8,15,60,63.3580821559467,29, 4,30
258,30.7929468447567,25.2413136243441,30, 9,30,36.4831699774931,26,21,60
259,33.6430538315884,16.2333457962384, 8,16,60,56.985725217166,28,15,30
260,0.0,0.0, 1, 1,15,0.0, 1, 1,15
291,0.0,0.0, 1, 1,15,0.0, 1, 1,15
322,0.0,0.0, 1, 1,15,0.0, 1, 1,15
323,0.0,0.0, 1, 1,15,0.0, 1, 1,15
324,0.0,0.0, 1, 1,15,0.0, 1, 1,15
325,0.0,0.0, 1, 1,15,0.0, 1, 1,15
408,103312071.449735,0.0, 1, 1,15,166632.373306025, 1, 6,15
461,62089590.5228455,0.0, 1, 1,15,100144.500843299, 1, 6,15
4,181, 6
8,49769377.9108974,7056.14998736727, 1, 8,15,23520.4999578909, 1, 1,15
9,29910931.5271816,4240.68027322993, 1, 8,15,14135.6009107664, 1, 1,15
71,33517463.4138119,0.0, 1, 1,15,42054.5337688982, 1,19,15
93,20143682.626096,0.0, 1, 1,15,25274.3822159298, 1,19,15
125,40516539.3910643,6007.79053841402, 1, 1,15,30038.9526920701, 1,18,15
137,24350061.952033,3610.62603084711, 1, 1,15,18053.1301542355, 1,18,15
138,477993064.544159,0.0, 1, 1,15,775565.259452442, 1,11,30
139,0.0,0.0, 1, 1,15,0.0, 1, 1,15
140,34.5679850688878,27.8609138740277, 1, 6,60,42.1420227703306,10,16,15
141,34.3497771102795,29.7696885941733, 1, 9,45,39.4010938269346,11,22,60
142,34.2106449274634,27.376668216233, 1, 5,60,41.7463665688219,10,16,15
143,34.3893149981756,27.6511561715207, 1, 6,60,41.9441946695763,10,16,15
144,34.1586590179705,29.4440110165153, 1, 9,45,39.4180050217692,11,20,60
145,34.2542180641251,29.6068498053443, 1, 9,45,39.3656180705274,11,20,60
146,130063037.008769,12071.486261008,15,10, 7,66180.7650613956, 8, 3,15
147,0.0,0.0, 1, 1,15,0.0, 1, 1,15
148,0.363160814840992,0.356695344200857,14,15,60,0.370586871813071,12, 3,22
149,78848634.2636989,2416.44861499081, 1,15,60,45548.2720777891,12, 7,15
150,0.0,0.0, 1, 1,15,0.0, 1, 1,15
151,0.363116966940124,0.35366205324027,15,15,60,0.373650183256013,12, 6,45
224,34.2106449274634,27.376668216233, 1, 5,60,41.7463665688219,10,16,15
225,39.4520460031289,14.3330520766043, 1,14,60,67.711065605792,14, 5,60
258,34.1586590179705,29.4399886317029, 1, 9,30,39.4180050217692,11,20,60
259,39.0532711990375,17.4724346156759, 1,15,15,61.3638311502479,14, 5,60
260,0.0,0.0, 1, 1,15,0.0, 1, 1,15
291,0.0,0.0, 1, 1,15,0.0, 1, 1,15
322,0.0,0.0, 1, 1,15,0.0, 1, 1,15
323,0.0,0.0, 1, 1,15,0.0, 1, 1,15
324,0.0,0.0, 1, 1,15,0.0, 1, 1,15
325,0.0,0.0, 1, 1,15,0.0, 1, 1,15
408,99979423.9836149,0.0, 1, 1,15,166632.373306025, 1, 6,15
461,60086700.5059795,0.0, 1, 1,15,100144.500843299, 1, 6,15
4,212, 7
8,51754508.1073434,7056.14998736727, 1,15,15,23520.4999578909, 1, 1,15
9,31103976.2440503,4240.68027322993, 1,15,15,14135.6009107664, 1, 1,15
71,34379581.3560743,0.0, 1, 1,15,42054.5337688982, 1,19,15
93,20661807.4615226,0.0, 1, 1,15,25274.3822159298, 1,19,15
125,41742128.6609007,6007.79053841402, 1, 1,15,30038.9526920701, 1,19,15
137,25086629.6623258,3610.62603084711, 1, 1,15,18053.1301542355, 1,19,15
138,422567857.875539,0.0, 1, 1,15,765601.805568282,28,11,30
139,0.0,0.0, 1, 1,15,0.0, 1, 1,15
140,27.0286903548518,24.0049354460506,12, 6,30,36.9612111248893, 1,14,15
141,25.8320393931717,24.54769392544,17,22,15,33.6996407591171, 1, 1,15
142,25.9704196460813,23.9298012906481, 2,14,15,36.6596469278777, 1,13,60
143,26.4995550004666,24.0557971926672,12, 4,30,36.7476260475258, 1,13,60
144,25.3884980368048,23.9623540053348, 3,14,15,33.3466471602302, 1, 1,15
145,25.6102687149883,24.2773166089003,17,21,60,33.5231439596736, 1, 1,15
146,27518847.7546104,0.0, 1,14, 2,42872.2237171614, 1, 1,15
147,22987455.4477501,0.0, 1, 1,15,52655.9476646988,30,14,30
148,0.350807426995011,0.341502116969747,20,15,60,0.360651194354052, 1, 1,60
149,13758600.9449303,0.0, 1,14, 2,29923.7250385075, 1, 3,60
150,13622543.3976528,0.0, 1, 1,15,30138.2053550937,30,14,45
151,0.350128048191488,0.341489564567243,20,15,60,0.362943495214735, 1, 3,60
224,25.9704196460813,23.3197786446273, 2,14, 5,36.6596469278777, 1,13,60
225,71.6277905792113,41.5271544987399,12,13,60,91.3255778288008, 2,14, 3
258,25.3884980368048,23.5484977472788,24,14, 3,33.3466471602302, 1, 1,15
259,73.9248682595095,51.6201381779978, 1,13,60,90.6428007669062, 2,14, 3
260,0.0,0.0, 1, 1,15,0.0, 1, 1,15
291,431830578.630985,0.0, 1, 1,15,1665645.31688741, 1,14,45
322,5.820647857035510E-006,0.0, 1, 1,15,1.293301465921104E-007,22,14,45
323,0.0,0.0, 1, 1,15,0.0, 1, 1,15
324,148776194.043027,0.0, 1, 1,15,820714.14466832, 1,14,45
325,1.052062224005113E-006,0.0, 1, 1,15,4.000639819423668E-008, 1,14,60
408,103312071.449735,0.0, 1, 1,15,166632.373306025, 1, 6,15
461,62089590.5228455,0.0, 1, 1,15,100144.500843299, 1, 6,15
4,243, 8
8,51378180.1080172,7056.14998736727, 1, 8,15,23520.4999578909, 1, 1,15
9,30877806.6294781,4240.68027322993, 1, 8,15,14135.6009107664, 1, 1,15
71,34673963.0924566,0.0, 1, 1,15,42054.5337688982, 1,19,15
93,20838728.1370341,0.0, 1, 1,15,25274.3822159298, 1,19,15
125,41886315.6338226,6007.79053841402, 1, 1,15,30038.9526920701, 1,18,15
137,25173284.6870661,3610.62603084711, 1, 1,15,18053.1301542355, 1,18,15
138,628507081.621421,0.0, 1, 1,15,1281374.96862217,30,11,45
139,0.0,0.0, 1, 1,15,0.0, 1, 1,15
140,27.9467364905645,23.2728647183895,26, 6,60,39.9804219588364,30,14,15
141,25.9993000873731,24.4968843327972,26, 7,60,28.6218436583986, 7,14,15
142,26.5059625640739,23.0674206023964,26, 6,60,39.8194577622284,30,13,60
143,27.2263495273192,23.1701426603929,26, 6,60,39.7813853631194,30,13,60
144,25.430262718838,23.9580228347026,25,14,15,28.7976304642194, 7,13,60
145,25.7147814031056,24.4030946941092,25,21,60,28.6396167635898, 7,13,60
146,32548885.7439551,0.0, 1,14, 1,51824.3890553042,27,13,45
147,24494047.8398568,0.0, 1, 1,15,52193.8293645785, 7,16,15
148,0.350893141466723,0.339077890338076, 7,15,60,0.362442997948374,30,13,37
149,14217641.3116045,0.0, 1,13,30,20390.4458722062,28, 6,60
150,14689167.4669981,0.0, 1, 1,15,31040.5675877034, 7,15,60
151,0.349642112972255,0.339069852367501, 7,15,60,0.358188559827676,28, 6,60
224,26.5059625640739,23.0674206023964,26, 6,60,39.8194577622284,30,13,60
225,68.8446582817015,26.9959912180112,30,13,60,92.6384051250274, 2, 5,60
258,25.430262718838,23.5833599825407,25,14, 5,28.7976304642194, 7,13,60
259,72.5195701889656,49.393135457608,30,13,60,93.3592358766303, 2, 5,60
260,0.0,0.0, 1, 1,15,0.0, 1, 1,15
291,605650071.81441,0.0, 1, 1,15,2171660.72430671,30,14,45
322,7.620954534104385E-006,0.0, 1, 1,15,2.122078512911685E-007,12,14,45
323,0.0,0.0, 1, 1,15,0.0, 1, 1,15
324,181538506.017733,0.0, 1, 1,15,384465.180800105, 7,14,45
325,1.267396214643668E-006,0.0, 1, 1,15,4.302478373574559E-008,12,15,60
408,103312071.449735,0.0, 1, 1,15,166632.373306025, 1, 6,15
461,62089590.5228455,0.0, 1, 1,15,100144.500843299, 1, 6,15
4,273, 9
8,49957541.9105606,7056.14998736727, 1, 8,15,23520.4999578909, 1, 1,15
9,30024016.3344678,4240.68027322993, 1, 8,15,14135.6009107664, 1, 1,15
71,33370272.5456207,0.0, 1, 1,15,42054.5337688982, 1,19,15
93,20055222.2883403,0.0, 1, 1,15,25274.3822159298, 1,19,15
125,40444445.9046033,6007.79053841402, 1, 1,15,30038.9526920701, 1,18,15
137,24306734.4396628,3610.62603084711, 1, 1,15,18053.1301542355, 1,18,15
138,756925457.747181,0.0, 1, 1,15,1575889.03206763,19,11,45
139,0.0,0.0, 1, 1,15,0.0, 1, 1,15
140,27.532304618834,22.5374575732145,30, 7,30,41.6790625620279,22,14,15
141,25.6528611392426,24.0269533913269,30, 8,15,28.6110529871778, 7,14,15
142,25.9848182161955,22.2869207702412,30, 7,30,41.4757255445419,22,13,60
143,26.7585614175147,22.4121891717279,30, 7,30,41.4136319189827,22,13,60
144,25.0356444450498,23.897190068036,30, 7,60,28.6669316639689, 7,13,60
145,25.3442527921462,23.9644910532368,30, 7,60,28.5422506055338, 7,13,60
146,58774699.1325437,0.0, 1,14, 2,54162.0998730164,16,13,60
147,2625842.91831644,0.0, 1, 1,15,23025.1714819895,20,18,60
148,0.355188046762462,0.342526338367355, 6,15,60,0.371273358560626,21,13,22
149,30015615.4144085,0.0, 1,14, 1,30008.0792325579,15,24,60
150,1611612.32459521,0.0, 1, 1,15,15603.6489855504,20,18,60
151,0.354079548919696,0.342526607665576, 6,15,60,0.363189854597124,30,24,60
224,25.9848182161955,22.2869207702412,30, 7,30,41.5468364638398,22,13,60
225,59.4802057407573,18.4251834842951,20,13,60,86.2793168719014, 9, 6,60
258,25.0356444450498,23.5399289748096,17,14, 3,28.6669316639689, 7,13,60
259,61.220967572294,33.4209121806589,16,13,60,83.9259775063752, 9, 6,60
260,0.0,0.0, 1, 1,15,0.0, 1, 1,15
291,580406153.872892,0.0, 1, 1,15,2466782.24068464,22,14,45
322,1.178108746557882E-005,0.0, 1, 1,15,2.042270352831110E-007, 1,14,45
323,0.0,0.0, 1, 1,15,0.0, 1, 1,15
324,145973386.549224,0.0, 1, 1,15,384113.376284514, 7,14,45
325,2.728498174064953E-006,0.0, 1, 1,15,2.522142494854052E-008,20,15,15
408,99979423.9836149,0.0, 1, 1,15,166632.373306025, 1, 6,15
461,60086700.5059795,0.0, 1, 1,15,100144.500843299, 1, 6,15
4,304,10
8,51566344.1076803,7056.14998736727, 1,15,15,23520.4999578909, 1, 1,15
9,30990891.4367642,4240.68027322993, 1,15,15,14135.6009107664, 1, 1,15
71,34526772.2242654,0.0, 1, 1,15,42054.5337688982, 1,19,15
93,20750267.7992783,0.0, 1, 1,15,25274.3822159298, 1,19,15
125,41814222.1473617,6007.79053841402, 1, 1,15,30038.9526920701, 1,19,15
137,25129957.1746959,3610.62603084711, 1, 1,15,18053.1301542355, 1,19,15
138,966045840.635568,0.0, 1, 1,15,1923829.50516368,31,11,30
139,0.0,0.0, 1, 1,15,0.0, 1, 1,15
140,36.7126860436365,22.5320739047512, 1, 7,30,49.6089037849947,15,15,15
141,35.5517930939207,24.222224860176, 1, 8,15,41.1808234927729, 9,21,45
142,36.0906463651314,22.1798514213706, 1, 7,30,49.2063058638819,15,14,60
143,36.4016662043839,22.3559626630609, 1, 7,30,49.3918223127197,15,14,60
144,35.0845079746378,23.9763456481375, 1, 7,60,40.8387885134845, 9,19,45
145,35.3181505342793,24.1052101219223, 1, 7,60,40.9768590823742, 9,21,15
146,217719114.130899,8127.91338717609,29, 9,17,110515.030496787,15,14,15
147,0.0,0.0, 1, 1,15,0.0, 1, 1,15
148,0.375176820651339,0.360786312327777, 1, 6,60,0.391098763802058,31,13,37
149,127233165.994273,4806.11760534931, 1,11, 3,69897.2679784185,15,24,60
150,0.0,0.0, 1, 1,15,0.0, 1, 1,15
151,0.373992194793925,0.358808110844394, 1,12,60,0.385024023534948,18,24,22
224,36.0906463651314,22.1798514213706, 1, 7,30,49.2063058638819,15,14,60
225,24.985763065175,6.08164003816422,19,14,60,53.9714437549518,28,24,45
258,35.0845079746378,23.9644058342847, 1, 7,60,40.8387885134845, 9,19,45
259,25.3062773910469,10.354899007702,19,16,15,48.4381789944921, 1, 1,15
260,0.0,0.0, 1, 1,15,0.0, 1, 1,15
291,0.0,0.0, 1, 1,15,0.0, 1, 1,15
322,0.0,0.0, 1, 1,15,0.0, 1, 1,15
323,0.0,0.0, 1, 1,15,0.0, 1, 1,15
324,0.0,0.0, 1, 1,15,0.0, 1, 1,15
325,0.0,0.0, 1, 1,15,0.0, 1, 1,15
408,103312071.449735,0.0, 1, 1,15,166632.373306025, 1, 6,15
461,62089590.5228455,0.0, 1, 1,15,100144.500843299, 1, 6,15
4,334,11
8,49769377.9108974,7056.14998736727, 1, 9,15,23520.4999578909, 1, 1,15
9,29910931.5271816,4240.68027322993, 1, 9,15,14135.6009107664, 1, 1,15
71,33517463.4138119,0.0, 1, 1,15,42054.5337688982, 1,20,15
93,20143682.626096,0.0, 1, 1,15,25274.3822159298, 1,20,15
125,40516539.3910642,6007.79053841402, 1, 1,15,30038.9526920701, 1,19,15
137,24350061.9520329,3610.62603084711, 1, 1,15,18053.1301542355, 1,19,15
138,971923572.437351,0.0, 1, 1,15,1923686.42093471,27,11,60
139,0.0,0.0, 1, 1,15,0.0, 1, 1,15
140,31.271389109646,18.8098657234028,11, 7,60,47.5452361390334, 6,15,15
141,30.5110281750541,22.457167393142,11, 9,60,38.7198080112322, 7,22,15
142,30.6078430845978,19.9999999999999,11, 8,45,47.2098743122044, 6,14,60
143,30.9396160971219,19.4049328617014,11, 7,60,47.3747726806651, 6,15,15
144,29.9757733081227,22.0326026950138,11, 8,60,38.366860919609, 7,20,60
145,30.2434007415883,22.2804380598949,11, 9,60,38.5264230949929, 7,21,60
146,221684324.374441,10996.0266519607,12, 9,32,112399.690851584,26,13,60
147,0.0,0.0, 1, 1,15,0.0, 1, 1,15
148,0.378415547389647,0.367034268342476,19, 8,30,0.395101217467214,22,15,15
149,131454140.079441,7053.07761633993,11,11,33,63171.2554888008,23, 7,30
150,0.0,0.0, 1, 1,15,0.0, 1, 1,15
151,0.377668401964926,0.366007964517475, 5,14,60,0.389160249767961,23, 7,30
224,30.6078430845978,19.9999999999999,11, 8,45,47.2098743122044, 6,14,60
225,23.8324164606826,6.80115016530298,27,15,15,47.6183591637643,19, 8,30
258,29.9757733081227,22.0326026950138,11, 8,60,38.366860919609, 7,20,60
259,23.8020834083932,11.2145200279018,23,15,52,40.3505653647852,19,11,15
260,4885352.23941223,0.0, 1, 1,15,158046.331738911,11, 7,60
291,0.0,0.0, 1, 1,15,0.0, 1, 1,15
322,4885352.23941232,0.0, 1, 1,15,158046.331738915,11, 7,60
323,0.0,0.0, 1, 1,15,0.0, 1, 1,15
324,0.0,0.0, 1, 1,15,0.0, 1, 1,15
325,0.0,0.0, 1, 1,15,0.0, 1, 1,15
408,99979423.9836149,0.0, 1, 1,15,166632.373306025, 1, 7,15
461,60086700.5059795,0.0, 1, 1,15,100144.500843299, 1, 7,15
4,365,12
8,51754508.1073434,7056.14998736727, 1, 9,15,23520.4999578909, 1, 1,15
9,31103976.2440503,4240.68027322993, 1, 9,15,14135.6009107664, 1, 1,15
71,34379581.3560743,0.0, 1, 1,15,42054.5337688982, 1,20,15
93,20661807.4615226,0.0, 1, 1,15,25274.3822159298, 1,20,15
125,41742128.6609007,6007.79053841402, 1, 1,15,30038.9526920701, 1,19,15
137,25086629.6623258,3610.62603084711, 1, 1,15,18053.1301542355, 1,19,15
138,1188096788.98236,0.0, 1, 1,15,2087511.71706067,31,12,30
139,0.0,0.0, 1, 1,15,0.0, 1, 1,15
140,28.6271154878692,17.6670075394272,31, 7,45,42.0513891484225, 9,15,30
141,27.2760215647233,20.430696167402,31, 9,30,31.8467633643201,28,22,15
142,27.9342718277999,19.9999999999999,15, 4,30,41.4658854366493, 9,15,15
143,28.2806936578345,18.8335037697136,31, 7,45,41.7397476413635, 9,15,30
144,26.5910730356277,20.,31, 8,30,31.4379900666198,28,20,60
145,26.9335473001755,20.215348083701,31, 9,30,31.6228374936799,28,20,60
146,279698557.982074,15073.7087992632, 4, 9,33,152217.120464518,31,14,60
147,0.0,0.0, 1, 1,15,0.0, 1, 1,15
148,0.386456336601376,0.370299248954646,25, 3,60,0.410601530121265,31,14,45
149,160986833.555932,9524.78930070273, 4, 9,60,74513.3714417748,31,23,60
150,0.0,0.0, 1, 1,15,0.0, 1, 1,15
151,0.384759968659213,0.371734451602094,29,15,60,0.400074804926533,31,21,52
224,27.9342718277999,19.9999999999999,15, 4,30,41.4658854366493, 9,15,15
225,16.0091789301617,3.75144408917008,20,14,45,39.7727659342072,25, 4,30
258,26.5910730356277,20.,31, 8,30,31.4379900666198,28,20,60
259,16.1227145327069,5.97397443900661,15,17,45,33.6789486865835,25, 4,60
260,31810251.5887002,0.0, 1, 9,15,323094.128828887,31, 6,60
291,0.0,0.0, 1, 1,15,0.0, 1, 1,15
322,31810251.5887009,0.0, 1, 9,15,323094.128828891,31, 6,60
323,233593.528259926,0.0, 1, 1,15,17188.7709517685,31, 9,30
324,0.0,0.0, 1, 1,15,0.0, 1, 1,15
325,233593.528259934,0.0, 1, 1,15,17188.7709517692,31, 9,30
408,103312071.449735,0.0, 1, 1,15,166632.373306025, 1, 7,15
461,62089590.5228455,0.0, 1, 1,15,100144.500843299, 1, 7,15
End of Data
 Number of Records Written=         384
