Program Version,EnergyPlus, Version 8.4.0-09f5359d8a, YMD=2023.08.02 14:39
1,5,Environment Title[],Latitude[deg],Longitude[deg],Time Zone[],Elevation[m]
2,6,Day of Simulation[],Month[],Day of Month[],DST Indicator[1=yes 0=no],Hour[],StartMinute[],EndMinute[],DayType
3,3,Cumulative Day of Simulation[],Month[],Day of Month[],DST Indicator[1=yes 0=no],DayType  ! When Daily Report Variables Requested
4,2,Cumulative Days of Simulation[],Month[]  ! When Monthly Report Variables Requested
5,1,Cumulative Days of Simulation[] ! When Run Period Report Variables Requested
8,9,PERIM,Zone People Total Heating Energy [J] !Monthly  [Value,Min,Day,Hour,Minute,Max,Day,Hour,Minute]
9,9,CORE,Zone People Total Heating Energy [J] !Monthly  [Value,Min,Day,Hour,Minute,Max,Day,Hour,Minute]
71,9,PERIM,Zone Lights Electric Energy [J] !Monthly  [Value,Min,Day,Hour,Minute,Max,Day,Hour,Minute]
93,9,CORE,Zone Lights Electric Energy [J] !Monthly  [Value,Min,Day,Hour,Minute,Max,Day,Hour,Minute]
125,9,PERIM,Zone Electric Equipment Electric Energy [J] !Monthly  [Value,Min,Day,Hour,Minute,Max,Day,Hour,Minute]
137,9,CORE,Zone Electric Equipment Electric Energy [J] !Monthly  [Value,Min,Day,Hour,Minute,Max,Day,Hour,Minute]
138,9,PERIM,Zone Windows Total Transmitted Solar Radiation Energy [J] !Monthly  [Value,Min,Day,Hour,Minute,Max,Day,Hour,Minute]
139,9,CORE,Zone Windows Total Transmitted Solar Radiation Energy [J] !Monthly  [Value,Min,Day,Hour,Minute,Max,Day,Hour,Minute]
140,9,PERIM,Zone Mean Radiant Temperature [C] !Monthly [Value,Min,Day,Hour,Minute,Max,Day,Hour,Minute]
141,9,CORE,Zone Mean Radiant Temperature [C] !Monthly [Value,Min,Day,Hour,Minute,Max,Day,Hour,Minute]
142,9,PERIM,Zone Mean Air Temperature [C] !Monthly [Value,Min,Day,Hour,Minute,Max,Day,Hour,Minute]
143,9,PERIM,Zone Operative Temperature [C] !Monthly [Value,Min,Day,Hour,Minute,Max,Day,Hour,Minute]
144,9,CORE,Zone Mean Air Temperature [C] !Monthly [Value,Min,Day,Hour,Minute,Max,Day,Hour,Minute]
145,9,CORE,Zone Operative Temperature [C] !Monthly [Value,Min,Day,Hour,Minute,Max,Day,Hour,Minute]
146,9,PERIM,Zone Infiltration Total Heat Loss Energy [J] !Monthly  [Value,Min,Day,Hour,Minute,Max,Day,Hour,Minute]
147,9,PERIM,Zone Infiltration Total Heat Gain Energy [J] !Monthly  [Value,Min,Day,Hour,Minute,Max,Day,Hour,Minute]
148,9,PERIM,Zone Infiltration Air Change Rate [ach] !Monthly [Value,Min,Day,Hour,Minute,Max,Day,Hour,Minute]
149,9,CORE,Zone Infiltration Total Heat Loss Energy [J] !Monthly  [Value,Min,Day,Hour,Minute,Max,Day,Hour,Minute]
150,9,CORE,Zone Infiltration Total Heat Gain Energy [J] !Monthly  [Value,Min,Day,Hour,Minute,Max,Day,Hour,Minute]
151,9,CORE,Zone Infiltration Air Change Rate [ach] !Monthly [Value,Min,Day,Hour,Minute,Max,Day,Hour,Minute]
224,9,PERIM,Zone Air Temperature [C] !Monthly [Value,Min,Day,Hour,Minute,Max,Day,Hour,Minute]
225,9,PERIM,Zone Air Relative Humidity [%] !Monthly [Value,Min,Day,Hour,Minute,Max,Day,Hour,Minute]
258,9,CORE,Zone Air Temperature [C] !Monthly [Value,Min,Day,Hour,Minute,Max,Day,Hour,Minute]
259,9,CORE,Zone Air Relative Humidity [%] !Monthly [Value,Min,Day,Hour,Minute,Max,Day,Hour,Minute]
260,9,PERIM IDEAL LOADS AIR,Zone Ideal Loads Supply Air Total Heating Energy [J] !Monthly  [Value,Min,Day,Hour,Minute,Max,Day,Hour,Minute]
291,9,PERIM IDEAL LOADS AIR,Zone Ideal Loads Supply Air Total Cooling Energy [J] !Monthly  [Value,Min,Day,Hour,Minute,Max,Day,Hour,Minute]
322,9,PERIM IDEAL LOADS AIR,Zone Ideal Loads Zone Total Heating Energy [J] !Monthly  [Value,Min,Day,Hour,Minute,Max,Day,Hour,Minute]
323,9,CORE IDEAL LOADS AIR,Zone Ideal Loads Supply Air Total Heating Energy [J] !Monthly  [Value,Min,Day,Hour,Minute,Max,Day,Hour,Minute]
324,9,CORE IDEAL LOADS AIR,Zone Ideal Loads Supply Air Total Cooling Energy [J] !Monthly  [Value,Min,Day,Hour,Minute,Max,Day,Hour,Minute]
325,9,CORE IDEAL LOADS AIR,Zone Ideal Loads Zone Total Heating Energy [J] !Monthly  [Value,Min,Day,Hour,Minute,Max,Day,Hour,Minute]
408,9,DHW PERIM,Water Use Equipment Heating Energy [J] !Monthly  [Value,Min,Day,Hour,Minute,Max,Day,Hour,Minute]
461,9,DHW CORE,Water Use Equipment Heating Energy [J] !Monthly  [Value,Min,Day,Hour,Minute,Max,Day,Hour,Minute]
End of Data Dictionary
1,ARCHSIM,  37.57, 126.97,   9.00,  87.10
4,31, 1
8,51566344.1245626,7056.14998967742, 1,16,15,23520.4999655914, 1, 1,15
9,30990891.4391259,4240.68027355307, 1,16,15,14135.6009118436, 1, 1,15
71,34526772.2355694,0.0, 1, 1,15,42054.5337826666, 1,20,15
93,20750267.8008596,0.0, 1, 1,15,25274.3822178557, 1,20,15
125,41814222.1610515,6007.79054038095, 1, 1,15,30038.9527019047, 1,20,15
137,25129957.1766105,3610.62603112224, 1, 1,15,18053.1301556112, 1,20,15
138,557414446.496724,0.0, 1, 1,15,1538999.4854213,30,16,30
139,0.0,0.0, 1, 1,15,0.0, 1, 1,15
140,20.4715922802259,17.1853401027303,22, 8,45,28.453518786631,30,17,45
141,20.6018762845237,19.4748162319166,22, 8,60,22.6048696117553, 4,23,60
142,21.0758719614362,19.9999999999998,27, 6,60,28.1826233412125,30,17,30
143,20.773732120831,18.5926700513651,22, 8,45,28.307658138046,30,17,30
144,20.3525820411423,19.9999999999999,14, 8,15,22.3437497679271, 4,22,60
145,20.4772291628331,19.7374081159583,22, 8,60,22.4580798758762, 4,22,60
146,225319564.024729,12089.258760932, 6,14,20,109938.51106716,23, 6,60
147,0.0,0.0, 1, 1,15,0.0, 1, 1,15
148,0.380202475268078,0.362645811592276, 8,12,60,0.394238617980829,23, 6,60
149,130844780.405741,5245.87954947593, 6,15,50,66078.5265252114,23, 6,60
150,0.0,0.0, 1, 1,15,0.0, 1, 1,15
151,0.379281532862307,0.36189593742975, 6,15,60,0.394238482577573,23, 6,60
224,21.0758719614362,19.9999999999998,27, 6,60,28.1826233412125,30,17,30
225,17.336814335416,5.06893151286335,16,16,60,34.7195679001022, 2,24,30
258,20.3525820411423,19.9999999999999,14, 8,15,22.3437497679271, 4,22,60
259,17.4614249014223,6.15072434646294,14,20,15,34.3041437359437, 2, 7,45
260,336719002.614038,0.0, 1,14,15,369946.657617279,22, 8,45
291,0.0,0.0, 1, 1,15,0.0, 1, 1,15
322,336719002.614045,0.0, 1,14,15,369946.657617279,22, 8,45
323,44788288.4619633,0.0, 1, 1,15,66604.6747504921,22, 8,60
324,0.0,0.0, 1, 1,15,0.0, 1, 1,15
325,44788293.8940318,0.0, 1, 1,15,66604.6747504968,22, 8,60
408,103312071.48356,0.0, 1, 1,15,166632.37336058, 1, 7,15
461,62089590.5275769,0.0, 1, 1,15,100144.50085093, 1, 7,15
4,59, 2
8,46551773.5318985,7056.14998967742, 1, 9,15,23520.4999655914, 1, 1,15
9,27977181.3247208,4240.68027355307, 1, 9,15,14135.6009118436, 1, 1,15
71,31204464.0667387,0.0, 1, 1,15,42054.5337826666, 1,20,15
93,18753591.605649,0.0, 1, 1,15,25274.3822178557, 1,20,15
125,37776986.9179155,6007.79054038095, 1, 1,15,30038.9527019047, 1,19,15
137,22703616.4836965,3610.62603112224, 1, 1,15,18053.1301556112, 1,19,15
138,592881178.267264,0.0, 1, 1,15,1611679.86985788,26,16,30
139,0.0,0.0, 1, 1,15,0.0, 1, 1,15
140,22.1528935528805,17.4824806823868, 4, 7,30,34.155660629399,24,17,60
141,21.8551308882205,19.5585837817411, 4, 8,60,26.8468722566469,24,23,60
142,22.314609289878,19.9999999999998, 8, 4,30,34.1807307414318,24,17,60
143,22.2337514213792,18.7412403411934, 4, 7,30,34.1681956854154,24,17,60
144,21.5018029748239,19.9999999999999, 4, 5,15,26.4799937675292,24,22,60
145,21.6784669315222,19.7792918908706, 4, 8,60,26.6454866512868,24,23,60
146,190828387.366281,9807.02795649472,24,14,33,103896.126882083, 7,17,45
147,0.0,0.0, 1, 1,15,0.0, 1, 1,15
148,0.377904867873906,0.363026226287207,23,13,15,0.3922422593145, 7,17,52
149,110098961.560613,5115.75069303805,24,15,48,60775.5562675501, 8, 6,60
150,0.0,0.0, 1, 1,15,0.0, 1, 1,15
151,0.376890570228047,0.36138557388171,23,15,60,0.390484936426858, 8, 6,60
224,22.314609289878,19.9999999999998, 8, 4,30,34.1807307414318,24,17,60
225,17.4695189867466,4.18495572846488, 9,17,30,38.3982281567804, 7, 2,60
258,21.5018029748239,19.9999999999999, 4, 5,15,26.4799937675292,24,22,60
259,17.4623750381294,5.95693303655014, 9,17,60,38.4035024930912, 3,21,60
260,185821709.125806,0.0, 1,14,30,311160.288937567, 4, 7,30
291,0.0,0.0, 1, 1,15,0.0, 1, 1,15
322,185821709.12581,0.0, 1,14,30,311160.288937567, 4, 7,30
323,18740883.3358407,0.0, 1, 1,15,52918.3371578157,11, 8,60
324,0.0,0.0, 1, 1,15,0.0, 1, 1,15
325,18740886.1344431,0.0, 1, 1,15,52918.3371578179,11, 8,60
408,93314129.0819251,0.0, 1, 1,15,166632.37336058, 1, 7,15
461,56080920.476521,0.0, 1, 1,15,100144.50085093, 1, 7,15
4,90, 3
8,51378180.1248379,7056.14998967742, 1, 9,15,23520.4999655914, 1, 1,15
9,30877806.6318312,4240.68027355307, 1, 9,15,14135.6009118436, 1, 1,15
71,34673963.1038087,0.0, 1, 1,15,42054.5337826666, 1,20,15
93,20838728.1386221,0.0, 1, 1,15,25274.3822178557, 1,20,15
125,41886315.6475361,6007.79054038095, 1, 1,15,30038.9527019047, 1,19,15
137,25173284.688984,3610.62603112224, 1, 1,15,18053.1301556112, 1,19,15
138,733775659.666096,0.0, 1, 1,15,1667155.63214651,15,16,30
139,0.0,0.0, 1, 1,15,0.0, 1, 1,15
140,25.1470933065197,18.5063373636522, 2, 7,30,38.5073262255875,19,17,60
141,24.7561511986882,20.3674829895711, 9,13,45,30.5257315630915,19,24,15
142,24.6908683481692,19.9999999999999, 9, 9,15,38.5461116084425,19,17,60
143,24.9189808273445,19.2531686818261, 2, 7,30,38.526718917015,19,17,60
144,24.3461302626923,20., 9,13,30,30.2753352734906,19,23,30
145,24.5511407306902,20.1837414947855, 9,13,45,30.3955638429554,19,23,60
146,185457336.954023,9049.4731754195,30,14,20,91920.6727246726, 6,18,15
147,0.0,0.0, 1, 1,15,0.0, 1, 1,15
148,0.373585977324389,0.359708496416967,30,13,15,0.388286095707217, 7,17,60
149,109547515.728991,4256.21280808406,30,15,50,57162.8249456847, 6, 3,60
150,0.0,0.0, 1, 1,15,0.0, 1, 1,15
151,0.373184847441025,0.358092285103839,30,15,60,0.386184238448142, 8, 3,60
224,24.6908683481692,19.9999999999999, 9, 9,15,38.5461116084425,19,17,60
225,20.47270158481,5.19152358334564, 7,17,37,36.9232716628747,27, 6,15
258,24.3461302626923,20., 9,13,30,30.2753352734906,19,23,30
259,20.1525154298256,7.67950185363115, 7,17,60,33.0374409535288,29, 6,60
260,28674469.9315658,0.0, 1, 1,15,182594.363630007, 9, 6,60
291,0.0,0.0, 1, 1,15,0.0, 1, 1,15
322,28674469.9315664,0.0, 1, 1,15,182594.363630008, 9, 6,60
323,8812.38120622963,0.0, 1, 1,15,1988.74183234748, 9,12,30
324,0.0,0.0, 1, 1,15,0.0, 1, 1,15
325,8812.38120622976,0.0, 1, 1,15,1988.74183234748, 9,12,30
408,103312071.48356,0.0, 1, 1,15,166632.37336058, 1, 7,15
461,62089590.5275769,0.0, 1, 1,15,100144.50085093, 1, 7,15
4,120, 4
8,50145705.9266408,7056.14998967742, 1,15,15,23520.4999655914, 1, 1,15
9,30137101.1440506,4240.68027355307, 1,15,15,14135.6009118436, 1, 1,15
71,33223081.6883067,0.0, 1, 1,15,42054.5337826666, 1,19,15
93,19966761.952106,0.0, 1, 1,15,25274.3822178557, 1,19,15
125,40372352.4313601,6007.79054038095, 1, 1,15,30038.9527019047, 1,19,15
137,24263406.9291412,3610.62603112224, 1, 1,15,18053.1301556112, 1,19,15
138,609833319.022041,0.0, 1, 1,15,1627232.1410979, 2,16,45
139,0.0,0.0, 1, 1,15,0.0, 1, 1,15
140,27.703502841589,18.9976447485578,26, 6,45,42.7224242467492,10,17,45
141,27.3883828157843,21.0774212278875,27,11,45,35.2922686867265,10,23,15
142,27.2772319601429,19.9999999999999,27, 5,60,42.8617591811784,10,17,45
143,27.490367400866,19.4988223742789,26, 6,45,42.7920917139638,10,17,45
144,27.0977811014564,20.8079288525386,26,11,45,35.0604973596329,11,21,60
145,27.2430819586204,20.9602122467261,27,11,30,35.1312075092486,10,22,60
146,150532995.746781,8489.29735240125, 8,15,48,92508.255209748,11,22,60
147,0.0,0.0, 1, 1,15,0.0, 1, 1,15
148,0.368373300861173,0.355422922073561,19,12,60,0.378699846239467, 2,18, 7
149,89750867.2258893,2333.84688615555,19,19,60,54289.7140844113,13, 2,60
150,0.0,0.0, 1, 1,15,0.0, 1, 1,15
151,0.368186142231006,0.354848173259237,19,12,60,0.377394036056771, 1, 3,22
224,27.2772319601429,19.9999999999999,27, 5,60,42.8617591811784,10,17,45
225,28.9074889221019,9.14692285667297,18,17,30,58.5622052051672,25, 3,60
258,27.0977811014564,20.8079288525386,26,11,45,35.0604973596329,11,21,60
259,28.264997602427,13.2962079605462,11,16,60,52.1962135879749,25, 1,60
260,5705009.34842246,0.0, 1, 1,15,109437.094836541,26, 6,60
291,0.0,0.0, 1, 1,15,0.0, 1, 1,15
322,5705009.34842264,0.0, 1, 1,15,109437.094836542,26, 6,60
323,0.0,0.0, 1, 1,15,0.0, 1, 1,15
324,0.0,0.0, 1, 1,15,0.0, 1, 1,15
325,0.0,0.0, 1, 1,15,0.0, 1, 1,15
408,99979424.0163484,0.0, 1, 1,15,166632.37336058, 1, 6,15
461,60086700.5105582,0.0, 1, 1,15,100144.50085093, 1, 6,15
4,151, 5
8,51378180.1248378,7056.14998967742, 1, 8,15,23520.4999655914, 1, 1,15
9,30877806.6318312,4240.68027355307, 1, 8,15,14135.6009118436, 1, 1,15
71,34673963.1038087,0.0, 1, 1,15,42054.5337826666, 1,19,15
93,20838728.1386221,0.0, 1, 1,15,25274.3822178557, 1,19,15
125,41886315.6475361,6007.79054038095, 1, 1,15,30038.9527019047, 1,18,15
137,25173284.688984,3610.62603112224, 1, 1,15,18053.1301556112, 1,18,15
138,625874120.518914,0.0, 1, 1,15,1420106.48325432, 5,16,45
139,0.0,0.0, 1, 1,15,0.0, 1, 1,15
140,32.0949124749436,23.1326085202062,30, 6,60,45.5172181934294,25,17,60
141,31.7604355988438,25.5480760878456,30,11,15,38.8792568571023,25,23,60
142,31.6683339309776,22.8921111905162,30, 6,60,45.7108865883931,25,17,60
143,31.8816232029606,23.0123598553612,30, 6,60,45.6140523909112,25,17,60
144,31.4880640052904,25.4454966742598,30, 9,45,38.7678682153948,25,22,60
145,31.6242498020671,25.5008170078966,30,11,30,38.7996432134816,25,22,60
146,152366009.940933,6977.57031843413,31,14,50,91883.6338180037, 8, 1,60
147,0.0,0.0, 1, 1,15,0.0, 1, 1,15
148,0.366660576027139,0.354600879582989,30,13,30,0.374658495491231,17,23, 7
149,91324196.1244103,0.0,11,18,60,57603.6241135376,17, 5,60
150,125.551796325151,0.0, 1, 1,15,125.551796325151,11,18,60
151,0.366473212007252,0.352026497558592,30,15,60,0.376775764934308, 6, 6,60
224,31.6683339309776,22.8921111905162,30, 6,60,45.7108865883931,25,17,60
225,33.1005719042949,10.261070153309, 8,17,45,61.7362374961179,29, 4,30
258,31.4880640052904,25.4454966742598,30, 9,45,38.7678682153948,25,22,60
259,32.4615116934315,16.4635673707438, 8,17,10,54.784756031579,28,15,30
260,0.0,0.0, 1, 1,15,0.0, 1, 1,15
291,0.0,0.0, 1, 1,15,0.0, 1, 1,15
322,0.0,0.0, 1, 1,15,0.0, 1, 1,15
323,0.0,0.0, 1, 1,15,0.0, 1, 1,15
324,0.0,0.0, 1, 1,15,0.0, 1, 1,15
325,0.0,0.0, 1, 1,15,0.0, 1, 1,15
408,103312071.48356,0.0, 1, 1,15,166632.37336058, 1, 6,15
461,62089590.5275769,0.0, 1, 1,15,100144.50085093, 1, 6,15
4,181, 6
8,49769377.9271914,7056.14998967742, 1, 8,15,23520.4999655914, 1, 1,15
9,29910931.5294611,4240.68027355307, 1, 8,15,14135.6009118436, 1, 1,15
71,33517463.4247854,0.0, 1, 1,15,42054.5337826666, 1,19,15
93,20143682.627631,0.0, 1, 1,15,25274.3822178557, 1,19,15
125,40516539.4043293,6007.79054038095, 1, 1,15,30038.9527019047, 1,18,15
137,24350061.9538882,3610.62603112224, 1, 1,15,18053.1301556112, 1,18,15
138,595186274.021757,0.0, 1, 1,15,1360462.32278735, 1,16,60
139,0.0,0.0, 1, 1,15,0.0, 1, 1,15
140,36.9030764861573,29.3712139864348,15, 7,15,48.2578182912319, 9,17,60
141,36.4545280260916,31.1885102019798,15,11,30,41.7851541004367,10,22,60
142,36.4786872551402,29.0725723687077,13, 5,60,48.4129471995828, 9,17,60
143,36.6908818706487,29.2384305493661,15, 6,60,48.3353827454074, 9,17,60
144,36.1770230740989,31.0716024677204,15,11,45,41.651546239258,10,20,60
145,36.3157755500952,31.1302482861272,15,11,45,41.6802085628367,10,22,60
146,150586225.569932,6776.81223759471, 1,15,50,76139.2462012474, 1, 4,45
147,0.0,0.0, 1, 1,15,0.0, 1, 1,15
148,0.365875077670829,0.355654225413546,15,13,30,0.374490810025667, 7,18,18
149,89862943.3331661,1268.96972177491, 1,15,50,48956.9013331808, 8, 3,60
150,0.0,0.0, 1, 1,15,0.0, 1, 1,15
151,0.365537326433373,0.353695090865599,15,15,60,0.375839656366839,12, 6,45
224,36.4786872551402,29.0725723687077,13, 5,60,48.4129471995828, 9,17,60
225,35.6183850287716,11.2353487050934, 8,17,45,63.3482376376288,14, 5,60
258,36.1770230740989,31.0716024677204,15,11,45,41.651546239258,10,20,60
259,35.4778290390949,17.1071044967789, 1,15,15,57.5977085249306,14, 5,60
260,0.0,0.0, 1, 1,15,0.0, 1, 1,15
291,0.0,0.0, 1, 1,15,0.0, 1, 1,15
322,0.0,0.0, 1, 1,15,0.0, 1, 1,15
323,0.0,0.0, 1, 1,15,0.0, 1, 1,15
324,0.0,0.0, 1, 1,15,0.0, 1, 1,15
325,0.0,0.0, 1, 1,15,0.0, 1, 1,15
408,99979424.0163484,0.0, 1, 1,15,166632.37336058, 1, 6,15
461,60086700.5105582,0.0, 1, 1,15,100144.50085093, 1, 6,15
4,212, 7
8,51754508.1242873,7056.14998967742, 1,15,15,23520.4999655914, 1, 1,15
9,31103976.2464207,4240.68027355307, 1,15,15,14135.6009118436, 1, 1,15
71,34379581.3673301,0.0, 1, 1,15,42054.5337826666, 1,19,15
93,20661807.4630971,0.0, 1, 1,15,25274.3822178557, 1,19,15
125,41742128.674567,6007.79054038095, 1, 1,15,30038.9527019047, 1,19,15
137,25086629.6642371,3610.62603112224, 1, 1,15,18053.1301556112, 1,19,15
138,502401785.543607,0.0, 1, 1,15,1207079.0091303, 6,16,45
139,0.0,0.0, 1, 1,15,0.0, 1, 1,15
140,27.0639542837696,24.2128649001346,18, 2,15,34.9893352043927, 1,14,15
141,25.9039422084021,24.5318373539739,17,22,15,34.9782419860521, 1, 1,15
142,25.8007565403172,23.9410085800318, 2,14,15,34.5061493213177, 1,13,60
143,26.4323554120433,24.146747301159,17,21,60,34.5994780831586, 1,13,60
144,25.4684965452956,23.9672760655907,17,14,15,34.5650500901972, 1, 1,15
145,25.6862193768489,24.2691135769411,17,21,60,34.7716460381246, 1, 1,15
146,26274639.8936446,0.0, 1,14, 2,48661.8207009892, 1, 1,15
147,22785773.4820608,0.0, 1, 1,15,50914.0041782648,30,14,30
148,0.350611326904854,0.341516041077789,20,15,60,0.362371375703882, 1, 1,60
149,14253132.3030611,0.0, 1,14, 2,32749.4672408654, 1, 3,60
150,13521120.3129501,0.0, 1, 1,15,29622.0303791327,31,15,60
151,0.350222313134653,0.341508128748691,20,15,60,0.364386012753981, 1, 3,60
224,25.8007565403172,23.3262888813479, 2,14, 5,34.5061493213177, 1,13,60
225,72.1283080692828,48.1870667515057, 1,13,60,91.0190754777791, 2,14, 3
258,25.4684965452956,23.3879364558382, 1,14, 3,34.5650500901972, 1, 1,15
259,73.624165955522,49.0293581232988, 1, 1,15,89.9594471990293, 2,14, 3
260,0.0,0.0, 1, 1,15,0.0, 1, 1,15
291,523235615.605444,0.0, 1, 1,15,1443887.56557452, 1,14,45
322,5.368447504720693E-006,0.0, 1, 1,15,1.188936948892660E-007, 1,17,15
323,0.0,0.0, 1, 1,15,0.0, 1, 1,15
324,144354354.667632,0.0, 1, 1,15,855808.747063744, 1,14,45
325,1.012184663357568E-006,0.0, 1, 1,15,6.650680006714538E-008, 1,15,15
408,103312071.48356,0.0, 1, 1,15,166632.37336058, 1, 6,15
461,62089590.5275769,0.0, 1, 1,15,100144.50085093, 1, 6,15
4,243, 8
8,51378180.1248379,7056.14998967742, 1, 8,15,23520.4999655914, 1, 1,15
9,30877806.6318312,4240.68027355307, 1, 8,15,14135.6009118436, 1, 1,15
71,34673963.1038087,0.0, 1, 1,15,42054.5337826666, 1,19,15
93,20838728.1386221,0.0, 1, 1,15,25274.3822178557, 1,19,15
125,41886315.6475361,6007.79054038095, 1, 1,15,30038.9527019047, 1,18,15
137,25173284.688984,3610.62603112224, 1, 1,15,18053.1301556112, 1,18,15
138,583877116.180105,0.0, 1, 1,15,1425732.65460577,30,16,30
139,0.0,0.0, 1, 1,15,0.0, 1, 1,15
140,27.2686204241327,23.175133761165,26, 7,15,32.0443877223835,30,17,15
141,25.8346902604584,24.4021628487297,26, 8,15,27.6818882810896, 7,14,15
142,25.8319272634402,22.977815199697,26, 6,60,31.2642864531527, 7,13,60
143,26.5502738437864,23.0774168004074,26, 7,15,31.1683044573804, 7,13,60
144,25.3840166931318,23.9295433964989,25,14,15,27.9472116794942, 7,13,60
145,25.6093534767951,24.3675715383431,25,21,60,27.7802134989985, 7,13,60
146,26683863.4975969,0.0, 1,14, 1,32379.0861311524,28, 6,60
147,24424435.414399,0.0, 1, 1,15,52465.6186922982, 7,15,60
148,0.350079555784291,0.339100709917237, 7,15,60,0.3575283556285,28, 6,60
149,14037366.331686,0.0, 1,13,15,20673.6628787674,28, 6,60
150,14641163.8633779,0.0, 1, 1,15,30874.147330356, 7,15,60
151,0.349557370548639,0.339087395897946, 7,15,60,0.358384603377944,28, 6,60
224,25.8319272634402,22.977815199697,26, 6,60,31.2642864531527, 7,13,60
225,70.7310778958056,46.1182337529453,30,13,60,91.437286085481, 2, 5,60
258,25.3840166931318,23.5510228775274, 8,14, 3,27.9472116794942, 7,13,60
259,72.6682175539448,54.7324097246239,27,22,30,92.5294927362295, 2, 5,60
260,0.0,0.0, 1, 1,15,0.0, 1, 1,15
291,599543130.63078,0.0, 1, 1,15,1162573.65677236,30,17,15
322,6.610465708542682E-006,0.0, 1, 1,15,1.270791472052224E-007, 6,15,60
323,0.0,0.0, 1, 1,15,0.0, 1, 1,15
324,147876654.050629,0.0, 1, 1,15,301473.915670072, 7,14, 1
325,8.837459049608150E-007,0.0, 1, 1,15,2.580975433374988E-008, 8,14,60
408,103312071.48356,0.0, 1, 1,15,166632.37336058, 1, 6,15
461,62089590.5275769,0.0, 1, 1,15,100144.50085093, 1, 6,15
4,273, 9
8,49957541.9269161,7056.14998967742, 1, 8,15,23520.4999655914, 1, 1,15
9,30024016.3367558,4240.68027355307, 1, 8,15,14135.6009118436, 1, 1,15
71,33370272.5565461,0.0, 1, 1,15,42054.5337826666, 1,19,15
93,20055222.2898685,0.0, 1, 1,15,25274.3822178557, 1,19,15
125,40444445.9178447,6007.79054038095, 1, 1,15,30038.9527019047, 1,18,15
137,24306734.4415147,3610.62603112224, 1, 1,15,18053.1301556112, 1,18,15
138,586228431.180548,0.0, 1, 1,15,1579399.08202595,22,16,30
139,0.0,0.0, 1, 1,15,0.0, 1, 1,15
140,26.2107165085085,22.4999109576226,30, 7,30,32.162237974386,23,16,60
141,25.2733510939483,23.9490631914446,30, 8,60,26.4805174236648, 7,14,15
142,24.8272929176634,22.2511152884198,30, 7,30,29.6961420486965, 7,13,60
143,25.5190047130859,22.3755131230212,30, 7,30,29.6653193408815, 7,13,60
144,24.8736872766456,23.8452795788305,30, 7,60,26.68029563619, 7,13,60
145,25.0735191852969,23.9127043227683,30, 7,60,26.5474002813217, 7,13,60
146,48122449.2603715,0.0, 1,14, 1,49650.2518370945,15,24,60
147,2797589.7748439,0.0, 1, 1,15,25483.4235769533,20,18,60
148,0.353800705957356,0.342546955151288, 6,15,60,0.362073210026086,30,24,60
149,28898229.8355657,0.0, 1,13,37,29701.7596049853,15,24,60
150,1604851.19104897,0.0, 1, 1,15,16781.011956438,20,18,60
151,0.353862233391825,0.342553816501179, 6,15,60,0.362904023930229,30,24,60
224,24.8272929176634,22.2511152884198,30, 7,30,29.7971632798376, 7,13,60
225,61.9237340670161,33.0040963940115,16,13,60,85.4381315684896, 9, 6,60
258,24.8736872766456,23.59011523889, 7,14, 3,26.6927586817086, 7,13,60
259,61.5657942664736,37.0957914766904,16,22,30,83.7134265491612, 9, 6,60
260,0.0,0.0, 1, 1,15,0.0, 1, 1,15
291,486901312.588854,0.0, 1, 1,15,1189414.15838713, 6,17,15
322,1.020134887271111E-005,0.0, 1, 1,15,1.452917786082253E-007, 8,16,15
323,0.0,0.0, 1, 1,15,0.0, 1, 1,15
324,92221113.7297027,0.0, 1, 1,15,189770.234649873, 7,14,45
325,1.695066954072127E-006,0.0, 1, 1,15,1.634532509342535E-008, 9,14,60
408,99979424.0163484,0.0, 1, 1,15,166632.37336058, 1, 6,15
461,60086700.5105582,0.0, 1, 1,15,100144.50085093, 1, 6,15
4,304,10
8,51566344.1245626,7056.14998967742, 1,15,15,23520.4999655914, 1, 1,15
9,30990891.4391259,4240.68027355307, 1,15,15,14135.6009118436, 1, 1,15
71,34526772.2355694,0.0, 1, 1,15,42054.5337826666, 1,19,15
93,20750267.8008596,0.0, 1, 1,15,25274.3822178557, 1,19,15
125,41814222.1610515,6007.79054038095, 1, 1,15,30038.9527019047, 1,19,15
137,25129957.1766106,3610.62603112224, 1, 1,15,18053.1301556112, 1,19,15
138,616485515.289702,0.0, 1, 1,15,1518235.64152119,15,15,60
139,0.0,0.0, 1, 1,15,0.0, 1, 1,15
140,30.2755797350597,20.7917478672133,24, 7,30,42.6392401505788, 9,17,60
141,29.9347759706735,23.9330603601539, 1, 9,30,35.8235484431181, 9,23,15
142,29.8532315123991,20.2537282201459,24, 7,30,42.565780358774, 9,17,45
143,30.0644056237294,20.5227380436796,24, 7,30,42.5792889421728, 9,17,45
144,29.6489280567867,23.7393605038168, 1, 7,60,35.5588312067122, 9,21,60
145,29.7918520137301,23.8687574301267, 1, 7,60,35.6680693639073, 9,22,60
146,157183096.203839,8014.48376247484, 1,13,50,97941.5547683246,15,24,60
147,0.0,0.0, 1, 1,15,0.0, 1, 1,15
148,0.367667400407954,0.355665505280056, 2,12,60,0.381393741107407,18,17,52
149,93688581.1756843,3743.52558926143, 2,16,20,59234.7836379536,15,24,60
150,0.0,0.0, 1, 1,15,0.0, 1, 1,15
151,0.367446859596105,0.355077293421008, 2,14,60,0.37998656184357,19, 3,22
224,29.8532315123991,20.2537282201459,24, 7,30,42.565780358774, 9,17,45
225,32.398213606305,8.94223986558586,16,17, 7,60.8224033855314,28,24,30
258,29.6489280567867,23.7393605038168, 1, 7,60,35.5588312067122, 9,21,60
259,31.9729807313096,13.8894507270043,19,16,37,53.4893589969842,28,24,30
260,0.0,0.0, 1, 1,15,0.0, 1, 1,15
291,0.0,0.0, 1, 1,15,0.0, 1, 1,15
322,0.0,0.0, 1, 1,15,0.0, 1, 1,15
323,0.0,0.0, 1, 1,15,0.0, 1, 1,15
324,0.0,0.0, 1, 1,15,0.0, 1, 1,15
325,0.0,0.0, 1, 1,15,0.0, 1, 1,15
408,103312071.48356,0.0, 1, 1,15,166632.37336058, 1, 6,15
461,62089590.5275769,0.0, 1, 1,15,100144.50085093, 1, 6,15
4,334,11
8,49769377.9271914,7056.14998967742, 1, 9,15,23520.4999655914, 1, 1,15
9,29910931.5294611,4240.68027355307, 1, 9,15,14135.6009118436, 1, 1,15
71,33517463.4247854,0.0, 1, 1,15,42054.5337826666, 1,20,15
93,20143682.627631,0.0, 1, 1,15,25274.3822178557, 1,20,15
125,40516539.4043292,6007.79054038095, 1, 1,15,30038.9527019047, 1,19,15
137,24350061.9538882,3610.62603112224, 1, 1,15,18053.1301556112, 1,19,15
138,492773545.070003,0.0, 1, 1,15,1331598.4658327, 6,15,30
139,0.0,0.0, 1, 1,15,0.0, 1, 1,15
140,23.1552856032498,17.5843181848536,27, 7,60,35.0931191368012, 6,17,15
141,23.2717614640445,19.741239658428,27,10,45,29.1340455342177, 6,24,15
142,23.1150446976841,19.9999999999999,26,24,15,35.2230361720388, 6,17,15
143,23.135165150467,18.7921590924268,27, 7,60,35.15807765442, 6,17,15
144,23.0153377114229,20.,24, 5,15,29.1255344989065, 7,22,60
145,23.1435495877337,19.870619829214,27,10,45,29.0833044974481, 7,22,60
146,147680397.168501,7870.14782914284, 7,13,50,81057.9941186105,30,24,60
147,0.0,0.0, 1, 1,15,0.0, 1, 1,15
148,0.369175317551753,0.357510747763532,14,12,60,0.381563613311834,22,17,52
149,88381139.5286237,3405.08622276036,13,14,50,49579.0831106156,23, 7,60
150,0.0,0.0, 1, 1,15,0.0, 1, 1,15
151,0.369069849615765,0.356740901484625, 5,15,60,0.381732849557996,23, 7,60
224,23.1150446976841,19.9999999999999,26,24,15,35.2230361720388, 6,17,15
225,32.0918378303488,11.7708239208219,27,16,60,60.6638362287177,19, 9,30
258,23.0153377114229,20.,24, 5,15,29.1255344989065, 7,22,60
259,31.7735664069896,15.2695325251023,23,13,15,56.2285933418127,19,12,45
260,96065063.3198253,0.0, 1, 1,15,285896.26722807,27, 6,60
291,0.0,0.0, 1, 1,15,0.0, 1, 1,15
322,96065063.3198276,0.0, 1, 1,15,285896.26722807,27, 6,60
323,4697588.95405206,0.0, 1, 1,15,33977.2969674052,24, 6,60
324,0.0,0.0, 1, 1,15,0.0, 1, 1,15
325,4697593.39495102,0.0, 1, 1,15,33977.2969674064,24, 6,60
408,99979424.0163484,0.0, 1, 1,15,166632.37336058, 1, 7,15
461,60086700.5105582,0.0, 1, 1,15,100144.50085093, 1, 7,15
4,365,12
8,51754508.1242873,7056.14998967742, 1, 9,15,23520.4999655914, 1, 1,15
9,31103976.2464207,4240.68027355307, 1, 9,15,14135.6009118436, 1, 1,15
71,34379581.3673301,0.0, 1, 1,15,42054.5337826666, 1,20,15
93,20661807.4630971,0.0, 1, 1,15,25274.3822178557, 1,20,15
125,41742128.674567,6007.79054038095, 1, 1,15,30038.9527019047, 1,19,15
137,25086629.6642371,3610.62603112224, 1, 1,15,18053.1301556112, 1,19,15
138,526663679.360116,0.0, 1, 1,15,1369202.65461083,31,15,60
139,0.0,0.0, 1, 1,15,0.0, 1, 1,15
140,20.4921658964871,17.2267902677268,31, 6,60,27.5059498955357,27,17,15
141,20.6213544387308,19.5248118046284,31, 8,60,22.4950754837053,29,23,60
142,21.0275091897824,19.9999999999998,18, 5,60,27.4674510905044,27,16,60
143,20.7598375431347,18.6133951338634,31, 6,60,27.4725061395267,27,17,15
144,20.3648552047624,19.9999999999999,16, 6,45,22.3705083813644,29,22,60
145,20.4931048217466,19.7624059023142,31, 8,60,22.4012039147438,29,22,60
146,208241460.441156,12733.5749013149,29,14,50,111647.241360714,31, 9,60
147,0.0,0.0, 1, 1,15,0.0, 1, 1,15
148,0.377689336489215,0.363584816793787,29,13,45,0.396110093654631,31,17,15
149,121022618.829297,6684.80769541431,29,15,60,66860.9009814388,31, 9,60
150,0.0,0.0, 1, 1,15,0.0, 1, 1,15
151,0.376851665140551,0.362141538209021,29,15,60,0.394553974842145,31,24,60
224,21.0275091897824,19.9999999999998,18, 5,60,27.4674510905044,27,16,60
225,19.8327038388393,5.99391642831625,15,16,60,40.3286916643121,25, 4,30
258,20.3648552047624,19.9999999999999,16, 6,45,22.3705083813644,29,22,60
259,20.0465685267895,7.39477507785799,16,19,60,40.9027529872206,25, 4,15
260,297692540.932827,0.0, 1,13,52,373795.845036978,31, 6,60
291,0.0,0.0, 1, 1,15,0.0, 1, 1,15
322,297692540.932834,0.0, 1,13,52,373795.845036978,31, 6,60
323,35331811.0602323,0.0, 1,16,22,64655.4425439212,31, 6,60
324,0.0,0.0, 1, 1,15,0.0, 1, 1,15
325,35331815.6496318,0.0, 1,16,22,64655.4425439214,31, 6,60
408,103312071.48356,0.0, 1, 1,15,166632.37336058, 1, 7,15
461,62089590.5275769,0.0, 1, 1,15,100144.50085093, 1, 7,15
End of Data
 Number of Records Written=         384
