Program Version,EnergyPlus, Version 8.4.0-09f5359d8a, YMD=2023.08.02 14:39
1,5,Environment Title[],Latitude[deg],Longitude[deg],Time Zone[],Elevation[m]
2,6,Day of Simulation[],Month[],Day of Month[],DST Indicator[1=yes 0=no],Hour[],StartMinute[],EndMinute[],DayType
3,3,Cumulative Day of Simulation[],Month[],Day of Month[],DST Indicator[1=yes 0=no],DayType  ! When Daily Report Variables Requested
4,2,Cumulative Days of Simulation[],Month[]  ! When Monthly Report Variables Requested
5,1,Cumulative Days of Simulation[] ! When Run Period Report Variables Requested
8,9,PERIM,Zone People Total Heating Energy [J] !Monthly  [Value,Min,Day,Hour,Minute,Max,Day,Hour,Minute]
9,9,CORE,Zone People Total Heating Energy [J] !Monthly  [Value,Min,Day,Hour,Minute,Max,Day,Hour,Minute]
71,9,PERIM,Zone Lights Electric Energy [J] !Monthly  [Value,Min,Day,Hour,Minute,Max,Day,Hour,Minute]
93,9,CORE,Zone Lights Electric Energy [J] !Monthly  [Value,Min,Day,Hour,Minute,Max,Day,Hour,Minute]
125,9,PERIM,Zone Electric Equipment Electric Energy [J] !Monthly  [Value,Min,Day,Hour,Minute,Max,Day,Hour,Minute]
137,9,CORE,Zone Electric Equipment Electric Energy [J] !Monthly  [Value,Min,Day,Hour,Minute,Max,Day,Hour,Minute]
138,9,PERIM,Zone Windows Total Transmitted Solar Radiation Energy [J] !Monthly  [Value,Min,Day,Hour,Minute,Max,Day,Hour,Minute]
139,9,CORE,Zone Windows Total Transmitted Solar Radiation Energy [J] !Monthly  [Value,Min,Day,Hour,Minute,Max,Day,Hour,Minute]
140,9,PERIM,Zone Mean Radiant Temperature [C] !Monthly [Value,Min,Day,Hour,Minute,Max,Day,Hour,Minute]
141,9,CORE,Zone Mean Radiant Temperature [C] !Monthly [Value,Min,Day,Hour,Minute,Max,Day,Hour,Minute]
142,9,PERIM,Zone Mean Air Temperature [C] !Monthly [Value,Min,Day,Hour,Minute,Max,Day,Hour,Minute]
143,9,PERIM,Zone Operative Temperature [C] !Monthly [Value,Min,Day,Hour,Minute,Max,Day,Hour,Minute]
144,9,CORE,Zone Mean Air Temperature [C] !Monthly [Value,Min,Day,Hour,Minute,Max,Day,Hour,Minute]
145,9,CORE,Zone Operative Temperature [C] !Monthly [Value,Min,Day,Hour,Minute,Max,Day,Hour,Minute]
146,9,PERIM,Zone Infiltration Total Heat Loss Energy [J] !Monthly  [Value,Min,Day,Hour,Minute,Max,Day,Hour,Minute]
147,9,PERIM,Zone Infiltration Total Heat Gain Energy [J] !Monthly  [Value,Min,Day,Hour,Minute,Max,Day,Hour,Minute]
148,9,PERIM,Zone Infiltration Air Change Rate [ach] !Monthly [Value,Min,Day,Hour,Minute,Max,Day,Hour,Minute]
149,9,CORE,Zone Infiltration Total Heat Loss Energy [J] !Monthly  [Value,Min,Day,Hour,Minute,Max,Day,Hour,Minute]
150,9,CORE,Zone Infiltration Total Heat Gain Energy [J] !Monthly  [Value,Min,Day,Hour,Minute,Max,Day,Hour,Minute]
151,9,CORE,Zone Infiltration Air Change Rate [ach] !Monthly [Value,Min,Day,Hour,Minute,Max,Day,Hour,Minute]
224,9,PERIM,Zone Air Temperature [C] !Monthly [Value,Min,Day,Hour,Minute,Max,Day,Hour,Minute]
225,9,PERIM,Zone Air Relative Humidity [%] !Monthly [Value,Min,Day,Hour,Minute,Max,Day,Hour,Minute]
258,9,CORE,Zone Air Temperature [C] !Monthly [Value,Min,Day,Hour,Minute,Max,Day,Hour,Minute]
259,9,CORE,Zone Air Relative Humidity [%] !Monthly [Value,Min,Day,Hour,Minute,Max,Day,Hour,Minute]
260,9,PERIM IDEAL LOADS AIR,Zone Ideal Loads Supply Air Total Heating Energy [J] !Monthly  [Value,Min,Day,Hour,Minute,Max,Day,Hour,Minute]
291,9,PERIM IDEAL LOADS AIR,Zone Ideal Loads Supply Air Total Cooling Energy [J] !Monthly  [Value,Min,Day,Hour,Minute,Max,Day,Hour,Minute]
322,9,PERIM IDEAL LOADS AIR,Zone Ideal Loads Zone Total Heating Energy [J] !Monthly  [Value,Min,Day,Hour,Minute,Max,Day,Hour,Minute]
323,9,CORE IDEAL LOADS AIR,Zone Ideal Loads Supply Air Total Heating Energy [J] !Monthly  [Value,Min,Day,Hour,Minute,Max,Day,Hour,Minute]
324,9,CORE IDEAL LOADS AIR,Zone Ideal Loads Supply Air Total Cooling Energy [J] !Monthly  [Value,Min,Day,Hour,Minute,Max,Day,Hour,Minute]
325,9,CORE IDEAL LOADS AIR,Zone Ideal Loads Zone Total Heating Energy [J] !Monthly  [Value,Min,Day,Hour,Minute,Max,Day,Hour,Minute]
408,9,DHW PERIM,Water Use Equipment Heating Energy [J] !Monthly  [Value,Min,Day,Hour,Minute,Max,Day,Hour,Minute]
461,9,DHW CORE,Water Use Equipment Heating Energy [J] !Monthly  [Value,Min,Day,Hour,Minute,Max,Day,Hour,Minute]
End of Data Dictionary
1,ARCHSIM,  37.57, 126.97,   9.00,  87.10
4,31, 1
8,51566344.1202815,7056.14998909162, 1,16,15,23520.4999636387, 1, 1,15
9,30990891.4456982,4240.68027445239, 1,16,15,14135.6009148413, 1, 1,15
71,34526772.2327029,0.0, 1, 1,15,42054.5337791753, 1,20,15
93,20750267.80526,0.0, 1, 1,15,25274.3822232156, 1,20,15
125,41814222.1575801,6007.79053988218, 1, 1,15,30038.9526994109, 1,20,15
137,25129957.1819398,3610.62603188794, 1, 1,15,18053.1301594397, 1,20,15
138,268173046.373722,0.0, 1, 1,15,973267.234567024,27, 9,45
139,0.0,0.0, 1, 1,15,0.0, 1, 1,15
140,18.6624551619614,17.0981618916651,23, 7,60,20.8499480316838,27,10,45
141,19.8380998349554,19.4281368258637,15, 8,60,20.2565597028015, 8,23,60
142,20.0024425648429,19.9999999999998,23, 4,45,20.3336160810657, 8,14,30
143,19.3324488634021,18.5490809458325,23, 7,60,20.5287589450442,27,10,45
144,20.00685089757,19.9999999999999,25, 8,15,20.4394975416221, 8,20,45
145,19.9224753662627,19.7140684129318,15, 8,60,20.3119136049716, 8,20,45
146,211878090.269461,25530.9392195561, 6,15,60,109126.766623877,23, 6,60
147,0.0,0.0, 1, 1,15,0.0, 1, 1,15
148,0.378586598749505,0.361454024956308, 6,15,60,0.393976932989948,23, 6,60
149,127542996.617537,15321.2174760488, 6,15,60,65681.0813995514,23, 6,60
150,0.0,0.0, 1, 1,15,0.0, 1, 1,15
151,0.378590899757892,0.361454482978323, 6,15,60,0.393974931268277,23, 6,60
224,20.0024425648429,19.9999999999998,23, 4,45,20.3336160810657, 8,14,30
225,17.5444565480246,6.66121439638477,14,19,60,34.9723782723174, 2,22,45
258,20.00685089757,19.9999999999999,25, 8,15,20.4394975416221, 8,20,45
259,17.6331410226959,6.20394879001458,14,19,60,35.2636776735148, 2,22,45
260,528426727.084523,0.0, 3, 9,60,390882.766491067,23, 6,60
291,0.0,0.0, 1, 1,15,0.0, 1, 1,15
322,528426727.084534,0.0, 3, 9,60,390882.766491067,23, 6,60
323,92939547.5834096,0.0, 1,20,15,73468.6059314908,23, 6,60
324,0.0,0.0, 1, 1,15,0.0, 1, 1,15
325,92939547.5834123,0.0, 1,20,15,73468.6059314915,23, 6,60
408,103312071.474983,0.0, 1, 1,15,166632.373346746, 1, 7,15
461,62089590.5407437,0.0, 1, 1,15,100144.500872168, 1, 7,15
4,59, 2
8,46551773.5280338,7056.14998909162, 1, 9,15,23520.4999636387, 1, 1,15
9,27977181.330654,4240.68027445239, 1, 9,15,14135.6009148413, 1, 1,15
71,31204464.064148,0.0, 1, 1,15,42054.5337791753, 1,20,15
93,18753591.6096259,0.0, 1, 1,15,25274.3822232156, 1,20,15
125,37776986.9147792,6007.79053988218, 1, 1,15,30038.9526994109, 1,19,15
137,22703616.4885112,3610.62603188794, 1, 1,15,18053.1301594397, 1,19,15
138,346775193.831346,0.0, 1, 1,15,1204031.63299579,28, 9,15
139,0.0,0.0, 1, 1,15,0.0, 1, 1,15
140,19.6512438446662,17.3417958608659, 8, 6,60,24.5957623520096,28,10,60
141,20.2769686499205,19.5438743978119, 4, 8,45,22.412552214136,28,22,30
142,20.389216103852,19.9999999999997, 4, 7,15,24.395453385996,28,10,60
143,20.0202299742591,18.6708979304329, 8, 6,60,24.4956078690028,28,10,60
144,20.230882296484,19.9999999999999, 8, 3,45,22.4546761275642,28,20,60
145,20.2539254732022,19.7719371989059, 4, 8,45,22.4157036012231,28,20,60
146,170520036.414289,15448.0978114171,28, 8,48,100175.377257384, 8, 6,60
147,0.0,0.0, 1, 1,15,0.0, 1, 1,15
148,0.375241289971204,0.360748909854116,23,15,60,0.390230134456033, 8, 6,60
149,101938094.614344,8208.07959322372,28,10,15,60221.9976128433, 8, 6,60
150,0.0,0.0, 1, 1,15,0.0, 1, 1,15
151,0.375042076452474,0.358896507119411,23,15,60,0.390229770009158, 8, 6,60
224,20.389216103852,19.9999999999997, 4, 7,15,24.395453385996,28,10,60
225,18.0620174489451,6.1307855161296, 9,17,60,37.9807581115495, 3,22,15
258,20.230882296484,19.9999999999999, 8, 3,45,22.4546761275642,28,20,60
259,18.3175809197046,6.07275690788833, 9,17,60,38.3773955413604, 3,21,60
260,307994866.770059,0.0, 1, 9,60,351081.230573267, 8, 6,60
291,0.0,0.0, 1, 1,15,0.0, 1, 1,15
322,307994866.770066,0.0, 1, 9,60,351081.230573279, 8, 6,60
323,49583278.7392412,0.0, 2,19,15,62248.0966183098, 8, 6,60
324,0.0,0.0, 1, 1,15,0.0, 1, 1,15
325,49583278.7392427,0.0, 2,19,15,62248.0966183101, 8, 6,60
408,93314129.0741778,0.0, 1, 1,15,166632.373346746, 1, 7,15
461,56080920.4884137,0.0, 1, 1,15,100144.500872168, 1, 7,15
4,90, 3
8,51378180.1205724,7056.14998909162, 1, 9,15,23520.4999636387, 1, 1,15
9,30877806.6383794,4240.68027445239, 1, 9,15,14135.6009148413, 1, 1,15
71,34673963.10093,0.0, 1, 1,15,42054.5337791753, 1,20,15
93,20838728.1430412,0.0, 1, 1,15,25274.3822232156, 1,20,15
125,41886315.6440587,6007.79053988218, 1, 1,15,30038.9526994109, 1,19,15
137,25173284.6943225,3610.62603188794, 1, 1,15,18053.1301594397, 1,19,15
138,621448521.982302,0.0, 1, 1,15,1519166.19872859,30, 9,30
139,0.0,0.0, 1, 1,15,0.0, 1, 1,15
140,23.6294066704181,17.833242640906, 8, 7,45,31.9927083327834,30,11,15
141,23.3813298059757,19.9463035978211, 8, 7,60,27.842715940093,30,22,45
142,23.3722077880281,19.9999999999999, 9, 4,15,31.9108122103745,30,10,60
143,23.5008072292231,18.916621320453, 8, 7,45,31.9253736536259,30,11,15
144,23.0348493518036,20., 8, 7,60,27.7788261217027,30,19,60
145,23.2080895788896,19.9731517989105, 8, 7,60,27.7700399589685,30,21,30
146,168723209.651472,11145.7287380001,29, 8, 3,85288.4610570197, 7,10,60
147,0.0,0.0, 1, 1,15,0.0, 1, 1,15
148,0.371710803858159,0.361450450474194,19,15,60,0.385315848271269, 7, 9,45
149,100125838.673579,7215.66305783226,19, 8,45,49922.4192316395,31,24,60
150,0.0,0.0, 1, 1,15,0.0, 1, 1,15
151,0.371302867969088,0.357670076106293,19,15,60,0.383238054770755, 8, 6,60
224,23.3722077880281,19.9999999999999, 9, 4,15,31.9108122103745,30,10,60
225,20.7580464387848,8.09882712296323, 7,16,15,37.7238432540961,13, 3,45
258,23.0348493518036,20., 8, 7,60,27.7788261217027,30,19,60
259,20.9585694061048,8.18192544869961, 7,17,60,33.7274426249876, 2, 3,30
260,67110007.6551219,0.0, 1, 9,60,270364.125773237, 8, 6,60
291,0.0,0.0, 1, 1,15,0.0, 1, 1,15
322,67110007.6551233,0.0, 1, 9,60,270364.125773241, 8, 6,60
323,2526240.20166408,0.0, 1, 1,15,36885.5047055983, 8, 6,60
324,0.0,0.0, 1, 1,15,0.0, 1, 1,15
325,2526240.23717083,0.0, 1, 1,15,36885.5047056001, 8, 6,60
408,103312071.474983,0.0, 1, 1,15,166632.373346746, 1, 7,15
461,62089590.5407437,0.0, 1, 1,15,100144.500872168, 1, 7,15
4,120, 4
8,50145705.9224777,7056.14998909162, 1,15,15,23520.4999636387, 1, 1,15
9,30137101.1504417,4240.68027445239, 1,15,15,14135.6009148413, 1, 1,15
71,33223081.6855484,0.0, 1, 1,15,42054.5337791753, 1,19,15
93,19966761.9563403,0.0, 1, 1,15,25274.3822232156, 1,19,15
125,40372352.4280084,6007.79053988218, 1, 1,15,30038.9526994109, 1,19,15
137,24263406.9342868,3610.62603188794, 1, 1,15,18053.1301594397, 1,19,15
138,671325679.944535,0.0, 1, 1,15,1608281.17955494,29, 8,60
139,0.0,0.0, 1, 1,15,0.0, 1, 1,15
140,29.0662149570578,19.6505551899079, 1, 7,30,40.9305952073465,11,11,30
141,28.5927148661889,23.0102222991182,27, 7,30,36.1155733212622,12,20,45
142,28.5732426520997,19.9999999999999, 1, 7,15,40.8008012845946,11,11,15
143,28.8197288045788,19.825277594954, 1, 7,30,40.8528322909228,11,11,15
144,28.2698437748383,22.730494312056,26, 9,30,35.9587264456255,12,19,45
145,28.4312793205136,22.8900117948268,27, 8,15,36.0228585056995,12,19,60
146,161066159.83988,8707.59144294988, 7, 7,47,90809.7237078871,11,22,60
147,0.0,0.0, 1, 1,15,0.0, 1, 1,15
148,0.369723895956885,0.363861075543704,19,12,60,0.382050180220305, 1,10,30
149,96056379.2387615,5815.10576394518,23, 8,17,55767.2182377949,11,22,60
150,0.0,0.0, 1, 1,15,0.0, 1, 1,15
151,0.369380761532558,0.357488208676621,19,12,60,0.378111575793685, 1, 3,22
224,28.5732426520997,19.9999999999999, 1, 7,15,40.8008012845946,11,11,15
225,27.0792132065188,10.2292667191918,11,16,60,53.6704334758079,20,23,45
258,28.2698437748383,22.7195525436968,27, 8,15,35.9587264456255,12,19,45
259,26.8686436559063,12.2878692596954,11,16,60,45.1381598099058,20,24,30
260,1353869.00091384,0.0, 1, 1,15,99148.0745099423, 1, 7,30
291,0.0,0.0, 1, 1,15,0.0, 1, 1,15
322,1353869.00091388,0.0, 1, 1,15,99148.0745099423, 1, 7,30
323,0.0,0.0, 1, 1,15,0.0, 1, 1,15
324,0.0,0.0, 1, 1,15,0.0, 1, 1,15
325,0.0,0.0, 1, 1,15,0.0, 1, 1,15
408,99979424.0080476,0.0, 1, 1,15,166632.373346746, 1, 6,15
461,60086700.5233004,0.0, 1, 1,15,100144.500872168, 1, 6,15
4,151, 5
8,51378180.1205724,7056.14998909162, 1, 8,15,23520.4999636387, 1, 1,15
9,30877806.6383794,4240.68027445239, 1, 8,15,14135.6009148413, 1, 1,15
71,34673963.10093,0.0, 1, 1,15,42054.5337791753, 1,19,15
93,20838728.1430412,0.0, 1, 1,15,25274.3822232156, 1,19,15
125,41886315.6440587,6007.79053988218, 1, 1,15,30038.9526994109, 1,18,15
137,25173284.6943225,3610.62603188794, 1, 1,15,18053.1301594397, 1,18,15
138,694013765.928374,0.0, 1, 1,15,1566116.25030333,16, 8,60
139,0.0,0.0, 1, 1,15,0.0, 1, 1,15
140,33.7653622760718,23.5431768985523,30, 6,15,43.966054560881,26,11,45
141,33.3132422546697,26.1135832307943,30, 7,15,39.2468629259551,26,22,30
142,33.2766215497316,23.2462100787469,30, 5,60,43.5889596393382,26,11,45
143,33.5209919129017,23.4131341981231,30, 5,60,43.7775071001096,26,11,45
144,32.9975533284465,25.9368660051201,30, 5,60,39.108420216198,26,19,60
145,33.155397791558,26.0522288559057,30, 6,60,39.1587606115765,26,21,60
146,166778735.827221,8810.04292213596,30, 9,18,91892.2400326977, 8, 1,60
147,0.0,0.0, 1, 1,15,0.0, 1, 1,15
148,0.368370080922071,0.358958456647435,25,15,60,0.381602667067835, 6, 9,60
149,100343421.053048,3627.86142599932,21,19,60,59245.7143095908, 8, 1,60
150,0.0,0.0, 1, 1,15,0.0, 1, 1,15
151,0.368056621014678,0.355023992257996,25,15,60,0.379441768185347, 6, 6,50
224,33.2766215497316,23.2462100787469,30, 5,60,43.5889596393382,26,11,45
225,31.0831717891621,11.2508780343412, 8,15,60,61.2743110134653,29, 4,30
258,32.9975533284465,25.9368660051201,30, 5,60,39.108420216198,26,19,60
259,30.7514641380651,13.7591007715789, 8,16,60,53.7474366672315,28,15,30
260,0.0,0.0, 1, 1,15,0.0, 1, 1,15
291,0.0,0.0, 1, 1,15,0.0, 1, 1,15
322,0.0,0.0, 1, 1,15,0.0, 1, 1,15
323,0.0,0.0, 1, 1,15,0.0, 1, 1,15
324,0.0,0.0, 1, 1,15,0.0, 1, 1,15
325,0.0,0.0, 1, 1,15,0.0, 1, 1,15
408,103312071.474983,0.0, 1, 1,15,166632.373346746, 1, 6,15
461,62089590.5407437,0.0, 1, 1,15,100144.500872168, 1, 6,15
4,181, 6
8,49769377.9230595,7056.14998909162, 1, 8,15,23520.4999636387, 1, 1,15
9,29910931.5358043,4240.68027445239, 1, 8,15,14135.6009148413, 1, 1,15
71,33517463.4220027,0.0, 1, 1,15,42054.5337791753, 1,19,15
93,20143682.6319028,0.0, 1, 1,15,25274.3822232156, 1,19,15
125,40516539.4009655,6007.79053988218, 1, 1,15,30038.9526994109, 1,18,15
137,24350061.959052,3610.62603188794, 1, 1,15,18053.1301594397, 1,18,15
138,725308464.326954,0.0, 1, 1,15,1657959.60705754, 1, 9,15
139,0.0,0.0, 1, 1,15,0.0, 1, 1,15
140,39.7038037308841,30.1318294980127,15, 6,15,51.6390611746503,11,11,45
141,39.0323762318062,32.2029501213816,15, 7,15,46.6659992969756,11,21,15
142,39.1954162614676,29.783489250638,15, 5,60,51.0934223704575,11,11,30
143,39.4496099961759,29.9647541215026,15, 5,60,51.3625841676488,11,11,45
144,38.6895643703844,31.9938995513443,15, 5,60,46.4841117531684,11,19,45
145,38.8609703010953,32.1319950957667,15, 6,60,46.5477341635299,11,20,45
146,171651236.602027,11919.8477295675, 2, 9,17,93669.7749108404,11,10,45
147,0.0,0.0, 1, 1,15,0.0, 1, 1,15
148,0.368850503452726,0.358887461923852,14,15,60,0.379502508337049, 3,10,37
149,101653670.405847,5843.9365105729, 2, 9,30,55389.451380484,12, 6,60
150,0.0,0.0, 1, 1,15,0.0, 1, 1,15
151,0.368274771351975,0.356886389681709,15,15,60,0.381308534424284,12, 3,37
224,39.1954162614676,29.783489250638,15, 5,60,51.0934223704575,11,11,30
225,31.8330494494329,10.5240108005972, 1,15,15,62.5609933836133,14, 5,60
258,38.6895643703844,31.9938995513443,15, 5,60,46.4841117531684,11,19,45
259,31.7952211510842,12.8955943659591, 8,16,60,55.3085181639246,14, 5,60
260,0.0,0.0, 1, 1,15,0.0, 1, 1,15
291,0.0,0.0, 1, 1,15,0.0, 1, 1,15
322,0.0,0.0, 1, 1,15,0.0, 1, 1,15
323,0.0,0.0, 1, 1,15,0.0, 1, 1,15
324,0.0,0.0, 1, 1,15,0.0, 1, 1,15
325,0.0,0.0, 1, 1,15,0.0, 1, 1,15
408,99979424.0080476,0.0, 1, 1,15,166632.373346746, 1, 6,15
461,60086700.5233004,0.0, 1, 1,15,100144.500872168, 1, 6,15
4,212, 7
8,51754508.1199906,7056.14998909162, 1,15,15,23520.4999636387, 1, 1,15
9,31103976.2530169,4240.68027445239, 1,15,15,14135.6009148413, 1, 1,15
71,34379581.3644757,0.0, 1, 1,15,42054.5337791753, 1,19,15
93,20661807.4674787,0.0, 1, 1,15,25274.3822232156, 1,19,15
125,41742128.6711016,6007.79053988218, 1, 1,15,30038.9526994109, 1,19,15
137,25086629.6695572,3610.62603188794, 1, 1,15,18053.1301594397, 1,19,15
138,550337453.962662,0.0, 1, 1,15,1444995.69694102,12, 9,30
139,0.0,0.0, 1, 1,15,0.0, 1, 1,15
140,28.0346800891393,24.1781111563646,12, 4,30,41.5888002495749, 1,12,15
141,26.2395199227487,24.5927764115951,17,22,15,36.9708440145016, 1,14,15
142,26.7982884250894,23.9597924580122, 2,14,15,41.2655176382074, 1,12,15
143,27.4164842571144,24.1504905759056,12, 4,30,41.4271589438912, 1,12,15
144,25.6573460954747,23.9503937003809,17,14,15,36.8812669571122, 1,13,60
145,25.9484330091117,24.300659790707,17,21,60,36.8913622407053, 1,13,60
146,34175305.7251953,0.0, 1,14, 2,57943.6045005314, 1,10,60
147,23435931.3689086,0.0, 1, 1,15,53203.5737348023,30,14,30
148,0.351609200087414,0.341322928688622,20,15,60,0.36823388522677, 1,10,37
149,14794724.4801007,0.0, 1,14, 2,35779.6419085839, 1, 3,60
150,13987225.8662262,0.0, 1, 1,15,30896.8864639102,30,14,45
151,0.350277747557741,0.341317642877797,20,15,60,0.366136990753116, 1, 1,15
224,26.7982884250894,23.3497311666079, 2,14, 5,41.2655176382074, 1,12,15
225,69.0590025415262,31.082681441928,12,11,30,90.5254931931713, 2,14, 3
258,25.6573460954747,23.5453446685002,24,14, 3,36.8812669571122, 1,13,60
259,72.9089772086002,43.2031150414296, 1,13,60,89.7478630951651, 2,14, 3
260,0.0,0.0, 1, 1,15,0.0, 1, 1,15
291,507878986.751862,0.0, 1, 1,15,2354563.39905615, 1,14,45
322,5.276599210901622E-006,0.0, 1, 1,15,1.493845047662035E-007, 6,14,45
323,0.0,0.0, 1, 1,15,0.0, 1, 1,15
324,185724479.06395,0.0, 1, 1,15,1229606.95945196, 1,14,45
325,1.722793854241900E-006,0.0, 1, 1,15,7.223661668831483E-008,20,14,45
408,103312071.474983,0.0, 1, 1,15,166632.373346746, 1, 6,15
461,62089590.5407437,0.0, 1, 1,15,100144.500872168, 1, 6,15
4,243, 8
8,51378180.1205724,7056.14998909162, 1, 8,15,23520.4999636387, 1, 1,15
9,30877806.6383794,4240.68027445239, 1, 8,15,14135.6009148413, 1, 1,15
71,34673963.10093,0.0, 1, 1,15,42054.5337791753, 1,19,15
93,20838728.1430412,0.0, 1, 1,15,25274.3822232156, 1,19,15
125,41886315.6440587,6007.79053988218, 1, 1,15,30038.9526994109, 1,18,15
137,25173284.6943225,3610.62603188794, 1, 1,15,18053.1301594397, 1,18,15
138,616270544.874142,0.0, 1, 1,15,1432803.10101466,17, 9,30
139,0.0,0.0, 1, 1,15,0.0, 1, 1,15
140,28.2983868763871,23.326594330656,26, 6,60,39.2305314877158, 7,11,60
141,26.1632939100313,24.5596938321338,26, 7,30,30.3025364739818, 7,14,15
142,26.9352440101225,23.1267678881545,26, 6,60,39.2548868670132, 7,11,45
143,27.6168154432547,23.2266811094052,26, 6,60,39.236217642563, 7,11,60
144,25.5540315690042,23.9610889557571,25,14,15,30.4658291041967, 7,13,60
145,25.8586627395177,24.4091572941509,25,21,60,30.3151749636911, 7,13,60
146,35808800.1613569,0.0, 1,14, 1,55253.9402604588,27,11,45
147,24972417.7095214,0.0, 1, 1,15,52651.5956689381, 7,16,15
148,0.351204437267071,0.338908266505254, 7,15,60,0.363411018992215,28,10,52
149,14418645.0578609,0.0, 1,13,45,20139.3558046059,28, 6,60
150,14978423.3685893,0.0, 1, 1,15,31421.5822340711, 7,15,60
151,0.349598125771919,0.338900753492997, 7,15,60,0.358202098054414,28, 7, 7
224,26.9352440101225,23.1267678881545,26, 6,60,39.2548868670132, 7,11,45
225,67.4369472754664,34.8432229537342,28,11,45,92.3707283980509, 2, 5,60
258,25.5540315690042,23.562507477646,21,14, 3,30.4658291041967, 7,13,60
259,72.0249701922641,49.7226479749913,30,13,60,93.1987568483547, 2, 5,60
260,0.0,0.0, 1, 1,15,0.0, 1, 1,15
291,555115707.385381,0.0, 1, 1,15,1925326.22289788, 7,14,45
322,6.578003421964240E-006,0.0, 1, 1,15,1.731223164824769E-007, 6,14,45
323,0.0,0.0, 1, 1,15,0.0, 1, 1,15
324,191448882.894605,0.0, 1, 1,15,536908.124316669, 7,14,45
325,1.777492260046643E-006,0.0, 1, 1,15,5.274500836094376E-008,23,14,45
408,103312071.474983,0.0, 1, 1,15,166632.373346746, 1, 6,15
461,62089590.5407437,0.0, 1, 1,15,100144.500872168, 1, 6,15
4,273, 9
8,49957541.9227686,7056.14998909162, 1, 8,15,23520.4999636387, 1, 1,15
9,30024016.343123,4240.68027445239, 1, 8,15,14135.6009148413, 1, 1,15
71,33370272.5537755,0.0, 1, 1,15,42054.5337791753, 1,19,15
93,20055222.2941215,0.0, 1, 1,15,25274.3822232156, 1,19,15
125,40444445.9144869,6007.79053988218, 1, 1,15,30038.9526994109, 1,18,15
137,24306734.4466694,3610.62603188794, 1, 1,15,18053.1301594397, 1,18,15
138,507828698.301639,0.0, 1, 1,15,1497508.14409291,16, 9,15
139,0.0,0.0, 1, 1,15,0.0, 1, 1,15
140,26.7192672592732,22.4568309577013,30, 7,30,35.0453500656196,16,11,15
141,25.4370088993291,23.9542081463491,30, 7,60,28.2056914058801, 7,14,15
142,25.667712663404,22.2200294162242,30, 7,30,35.2252382757216,16,11,15
143,26.1934899613385,22.3384301869627,30, 7,30,35.1352941706706,16,11,15
144,24.9507782501861,23.8276640763619,30, 7,60,28.3423341540665, 7,13,60
145,25.1938935747576,23.8909361113555,30, 7,60,28.2192481384492, 7,13,60
146,54561820.1661474,0.0, 1,14, 2,53722.8926074985,16,10,60
147,2805548.64464607,0.0, 1, 1,15,25100.3354787909,20,18,60
148,0.354605668304487,0.342352635124036, 6,15,60,0.367298339497026,16,10,22
149,28797150.7940446,0.0, 1,14, 1,29475.7210775605,15,24,60
150,1697565.3691804,0.0, 1, 1,15,16342.9369712095,20,18,60
151,0.353767859980147,0.342356102669177, 6,15,60,0.362696087562232,30,24,60
224,25.667712663404,22.2200294162242,30, 7,30,35.2252382757216,16,11,15
225,59.9653754784272,24.8977198122835,16,11,15,87.4507391648213, 9, 6,60
258,24.9507782501861,23.5267279848891,21,14, 3,28.3423341540665, 7,13,60
259,61.4518111099677,33.6189865748307,16,13,60,84.7215595946005, 9, 6,60
260,0.0,0.0, 1, 1,15,0.0, 1, 1,15
291,343482702.258255,0.0, 1, 1,15,1328097.43234497, 7,14,45
322,7.653623474477802E-006,0.0, 1, 1,15,9.167706593871117E-008,16,14,60
323,0.0,0.0, 1, 1,15,0.0, 1, 1,15
324,114672477.783207,0.0, 1, 1,15,331515.485417646, 7,14,45
325,2.466370283389534E-006,0.0, 1, 1,15,3.038849172298797E-008, 8,14,45
408,99979424.0080476,0.0, 1, 1,15,166632.373346746, 1, 6,15
461,60086700.5233004,0.0, 1, 1,15,100144.500872168, 1, 6,15
4,304,10
8,51566344.1202815,7056.14998909162, 1,15,15,23520.4999636387, 1, 1,15
9,30990891.4456982,4240.68027445239, 1,15,15,14135.6009148413, 1, 1,15
71,34526772.2327029,0.0, 1, 1,15,42054.5337791753, 1,19,15
93,20750267.80526,0.0, 1, 1,15,25274.3822232156, 1,19,15
125,41814222.1575801,6007.79053988218, 1, 1,15,30038.9526994109, 1,19,15
137,25129957.1819398,3610.62603188794, 1, 1,15,18053.1301594397, 1,19,15
138,409017760.154995,0.0, 1, 1,15,1263298.13352746, 1, 9,15
139,0.0,0.0, 1, 1,15,0.0, 1, 1,15
140,26.511383124326,19.1343669045179,24, 7,30,35.6418204872907, 5,10,60
141,26.691260759212,21.9532459432011,29, 8,30,32.5901718360518, 5,21,60
142,26.2320613335169,19.9999999999999,31, 6,45,35.4849523054137, 5,10,60
143,26.3717222289214,19.5671834522589,24, 7,30,35.5633863963522, 5,10,60
144,26.5467773799214,21.7169979416138,31, 9,30,32.6608614398104, 5,19,60
145,26.6190190695667,21.8857086809016,31, 9,30,32.5858918169297, 5,19,60
146,117213915.686202,1053.08578537816,14,18,60,66740.6028771237,15,24,60
147,0.0,0.0, 1, 1,15,0.0, 1, 1,15
148,0.363072907670159,0.355499864344592,22,15,60,0.372400800055365,24, 9,60
149,73059794.8316388,0.0,14,18,60,43930.4293058627,15,24,60
150,346.991837516765,0.0, 1, 1,15,346.991837516765,14,18,60
151,0.363467040381567,0.353431049364138,27,15,60,0.372147765228904,24, 6,60
224,26.2320613335169,19.9999999999999,31, 6,45,35.5005830740743, 5,10,45
225,37.1704805224973,15.651839211221,19,15,15,67.3605897490582,28,24,30
258,26.5467773799214,21.7159210653404,31, 9,25,32.6608614398104, 5,19,60
259,36.4131977125097,17.0342156895607,19,15,45,61.2061616551738,28,24,30
260,3058397.00374925,0.0, 1, 1,15,100792.802183361,24, 7,30
291,0.0,0.0, 1, 1,15,0.0, 1, 1,15
322,3058397.00374934,0.0, 1, 1,15,100792.802183363,24, 7,30
323,0.0,0.0, 1, 1,15,0.0, 1, 1,15
324,0.0,0.0, 1, 1,15,0.0, 1, 1,15
325,0.0,0.0, 1, 1,15,0.0, 1, 1,15
408,103312071.474983,0.0, 1, 1,15,166632.373346746, 1, 6,15
461,62089590.5407437,0.0, 1, 1,15,100144.500872168, 1, 6,15
4,334,11
8,49769377.9230595,7056.14998909162, 1, 9,15,23520.4999636387, 1, 1,15
9,29910931.5358043,4240.68027445239, 1, 9,15,14135.6009148413, 1, 1,15
71,33517463.4220027,0.0, 1, 1,15,42054.5337791753, 1,20,15
93,20143682.6319028,0.0, 1, 1,15,25274.3822232156, 1,20,15
125,40516539.4009655,6007.79053988218, 1, 1,15,30038.9526994109, 1,19,15
137,24350061.959052,3610.62603188794, 1, 1,15,18053.1301594397, 1,19,15
138,250834777.055045,0.0, 1, 1,15,887882.630363918, 6, 9,15
139,0.0,0.0, 1, 1,15,0.0, 1, 1,15
140,19.9923258231575,17.4977476958301,27, 7,60,24.5537310824676, 7,15,60
141,20.7154724971541,19.5873867257904,27, 7,60,23.7284755532477, 7,23,60
142,20.5281522025059,19.9999999999998,22, 8,30,24.4692020168977, 7,15,45
143,20.2602390128317,18.748873847915,27, 7,60,24.5102742783638, 7,15,45
144,20.7011361336621,19.9999999999999,24, 2,15,24.04237879251, 7,22,60
145,20.7083043154081,19.7936933628952,27, 7,60,23.8771555758956, 7,23,60
146,120411833.396394,8221.32513271544,18,20, 7,81546.4677749124,30,24,60
147,0.0,0.0, 1, 1,15,0.0, 1, 1,15
148,0.36576809340448,0.353569430816884, 5,15,60,0.380795032207508,23, 8,60
149,73468374.2289567,4707.25752233571, 7,13,60,47944.6093157243,23, 7,60
150,0.0,0.0, 1, 1,15,0.0, 1, 1,15
151,0.365983129259411,0.351924525646108, 6,15,60,0.38080363303427,23, 8,60
224,20.5281522025059,19.9999999999998,22, 8,30,24.4692020168977, 7,15,45
225,36.1924172738623,15.5250239524548,23,13,30,60.041909675204,19, 9,15
258,20.7011361336621,19.9999999999999,24, 2,15,24.04237879251, 7,22,60
259,35.7798761548045,15.3765600230667,23,13,15,60.740529258476,19,12,30
260,200482374.918113,0.0, 1, 1,15,296347.701526127,27, 6,60
291,0.0,0.0, 1, 1,15,0.0, 1, 1,15
322,200482374.918118,0.0, 1, 1,15,296347.701526139,27, 6,60
323,20522476.5967011,0.0, 1, 1,15,44016.1836943439,23, 6,60
324,0.0,0.0, 1, 1,15,0.0, 1, 1,15
325,20522476.5967018,0.0, 1, 1,15,44016.1836943439,23, 6,60
408,99979424.0080476,0.0, 1, 1,15,166632.373346746, 1, 7,15
461,60086700.5233004,0.0, 1, 1,15,100144.500872168, 1, 7,15
4,365,12
8,51754508.1199906,7056.14998909162, 1, 9,15,23520.4999636387, 1, 1,15
9,31103976.2530169,4240.68027445239, 1, 9,15,14135.6009148413, 1, 1,15
71,34379581.3644757,0.0, 1, 1,15,42054.5337791753, 1,20,15
93,20661807.4674787,0.0, 1, 1,15,25274.3822232156, 1,20,15
125,41742128.6711015,6007.79053988218, 1, 1,15,30038.9526994109, 1,19,15
137,25086629.6695572,3610.62603188794, 1, 1,15,18053.1301594397, 1,19,15
138,232712691.077346,0.0, 1, 1,15,708660.821899661,31, 9,30
139,0.0,0.0, 1, 1,15,0.0, 1, 1,15
140,18.6698054538514,17.1024268733534,18, 6,60,20.4006327791482, 4,10,15
141,19.8291368079371,19.4290416765091,17, 8,60,20.216138698222,28,23,60
142,20.,19.9999999999998,21, 5,30,20.0000000000002,31, 5,60
143,19.3349027269257,18.5512134366767,18, 6,60,20.2003163895741, 4,10,15
144,20.0082014612153,19.9999999999999,31,18,30,20.4127848930141,28,20,60
145,19.9186691345761,19.7145208382545,17, 8,60,20.2859370016309,28,22,60
146,195457001.780188,28736.3264598047,11,15,60,110999.972078779,31, 9,60
147,0.0,0.0, 1, 1,15,0.0, 1, 1,15
148,0.376142759918067,0.361378803380005,29,15,60,0.394294273996667,31,24,60
149,117647509.95623,17391.3828094564,11,15,60,66501.8032598752,31, 9,60
150,0.0,0.0, 1, 1,15,0.0, 1, 1,15
151,0.376152093799411,0.361379307640869,29,15,60,0.394291327575437,31,24,60
224,20.,19.9999999999998,21, 5,30,20.0000000000002,31, 5,60
225,20.2092118454656,7.78915565406414,16,19,60,40.2384066169292,25, 4,30
258,20.0082014612153,19.9999999999999,31,18,30,20.4127848930141,28,20,60
259,20.2663611526576,7.40081728355681,16,19,60,40.8508057567441,25, 4,15
260,497615787.820961,5623.4075486335,13, 9,60,385632.902889625,18, 6,60
291,0.0,0.0, 1, 1,15,0.0, 1, 1,15
322,497615787.820971,5623.40754863376,13, 9,60,385632.902889641,18, 6,60
323,83603901.655674,0.0, 6,20,15,71505.7515685967,17, 8,45
324,0.0,0.0, 1, 1,15,0.0, 1, 1,15
325,83603901.6556765,0.0, 6,20,15,71505.7515685991,17, 8,45
408,103312071.474983,0.0, 1, 1,15,166632.373346746, 1, 7,15
461,62089590.5407437,0.0, 1, 1,15,100144.500872168, 1, 7,15
End of Data
 Number of Records Written=         384
