Program Version,EnergyPlus, Version 8.4.0-09f5359d8a, YMD=2023.08.02 14:39
1,5,Environment Title[],Latitude[deg],Longitude[deg],Time Zone[],Elevation[m]
2,6,Day of Simulation[],Month[],Day of Month[],DST Indicator[1=yes 0=no],Hour[],StartMinute[],EndMinute[],DayType
3,3,Cumulative Day of Simulation[],Month[],Day of Month[],DST Indicator[1=yes 0=no],DayType  ! When Daily Report Variables Requested
4,2,Cumulative Days of Simulation[],Month[]  ! When Monthly Report Variables Requested
5,1,Cumulative Days of Simulation[] ! When Run Period Report Variables Requested
8,9,PERIM,Zone People Total Heating Energy [J] !Monthly  [Value,Min,Day,Hour,Minute,Max,Day,Hour,Minute]
9,9,CORE,Zone People Total Heating Energy [J] !Monthly  [Value,Min,Day,Hour,Minute,Max,Day,Hour,Minute]
71,9,PERIM,Zone Lights Electric Energy [J] !Monthly  [Value,Min,Day,Hour,Minute,Max,Day,Hour,Minute]
93,9,CORE,Zone Lights Electric Energy [J] !Monthly  [Value,Min,Day,Hour,Minute,Max,Day,Hour,Minute]
125,9,PERIM,Zone Electric Equipment Electric Energy [J] !Monthly  [Value,Min,Day,Hour,Minute,Max,Day,Hour,Minute]
137,9,CORE,Zone Electric Equipment Electric Energy [J] !Monthly  [Value,Min,Day,Hour,Minute,Max,Day,Hour,Minute]
138,9,PERIM,Zone Windows Total Transmitted Solar Radiation Energy [J] !Monthly  [Value,Min,Day,Hour,Minute,Max,Day,Hour,Minute]
139,9,CORE,Zone Windows Total Transmitted Solar Radiation Energy [J] !Monthly  [Value,Min,Day,Hour,Minute,Max,Day,Hour,Minute]
140,9,PERIM,Zone Mean Radiant Temperature [C] !Monthly [Value,Min,Day,Hour,Minute,Max,Day,Hour,Minute]
141,9,CORE,Zone Mean Radiant Temperature [C] !Monthly [Value,Min,Day,Hour,Minute,Max,Day,Hour,Minute]
142,9,PERIM,Zone Mean Air Temperature [C] !Monthly [Value,Min,Day,Hour,Minute,Max,Day,Hour,Minute]
143,9,PERIM,Zone Operative Temperature [C] !Monthly [Value,Min,Day,Hour,Minute,Max,Day,Hour,Minute]
144,9,CORE,Zone Mean Air Temperature [C] !Monthly [Value,Min,Day,Hour,Minute,Max,Day,Hour,Minute]
145,9,CORE,Zone Operative Temperature [C] !Monthly [Value,Min,Day,Hour,Minute,Max,Day,Hour,Minute]
146,9,PERIM,Zone Infiltration Total Heat Loss Energy [J] !Monthly  [Value,Min,Day,Hour,Minute,Max,Day,Hour,Minute]
147,9,PERIM,Zone Infiltration Total Heat Gain Energy [J] !Monthly  [Value,Min,Day,Hour,Minute,Max,Day,Hour,Minute]
148,9,PERIM,Zone Infiltration Air Change Rate [ach] !Monthly [Value,Min,Day,Hour,Minute,Max,Day,Hour,Minute]
149,9,CORE,Zone Infiltration Total Heat Loss Energy [J] !Monthly  [Value,Min,Day,Hour,Minute,Max,Day,Hour,Minute]
150,9,CORE,Zone Infiltration Total Heat Gain Energy [J] !Monthly  [Value,Min,Day,Hour,Minute,Max,Day,Hour,Minute]
151,9,CORE,Zone Infiltration Air Change Rate [ach] !Monthly [Value,Min,Day,Hour,Minute,Max,Day,Hour,Minute]
224,9,PERIM,Zone Air Temperature [C] !Monthly [Value,Min,Day,Hour,Minute,Max,Day,Hour,Minute]
225,9,PERIM,Zone Air Relative Humidity [%] !Monthly [Value,Min,Day,Hour,Minute,Max,Day,Hour,Minute]
258,9,CORE,Zone Air Temperature [C] !Monthly [Value,Min,Day,Hour,Minute,Max,Day,Hour,Minute]
259,9,CORE,Zone Air Relative Humidity [%] !Monthly [Value,Min,Day,Hour,Minute,Max,Day,Hour,Minute]
260,9,PERIM IDEAL LOADS AIR,Zone Ideal Loads Supply Air Total Heating Energy [J] !Monthly  [Value,Min,Day,Hour,Minute,Max,Day,Hour,Minute]
291,9,PERIM IDEAL LOADS AIR,Zone Ideal Loads Supply Air Total Cooling Energy [J] !Monthly  [Value,Min,Day,Hour,Minute,Max,Day,Hour,Minute]
322,9,PERIM IDEAL LOADS AIR,Zone Ideal Loads Zone Total Heating Energy [J] !Monthly  [Value,Min,Day,Hour,Minute,Max,Day,Hour,Minute]
323,9,CORE IDEAL LOADS AIR,Zone Ideal Loads Supply Air Total Heating Energy [J] !Monthly  [Value,Min,Day,Hour,Minute,Max,Day,Hour,Minute]
324,9,CORE IDEAL LOADS AIR,Zone Ideal Loads Supply Air Total Cooling Energy [J] !Monthly  [Value,Min,Day,Hour,Minute,Max,Day,Hour,Minute]
325,9,CORE IDEAL LOADS AIR,Zone Ideal Loads Zone Total Heating Energy [J] !Monthly  [Value,Min,Day,Hour,Minute,Max,Day,Hour,Minute]
408,9,DHW PERIM,Water Use Equipment Heating Energy [J] !Monthly  [Value,Min,Day,Hour,Minute,Max,Day,Hour,Minute]
461,9,DHW CORE,Water Use Equipment Heating Energy [J] !Monthly  [Value,Min,Day,Hour,Minute,Max,Day,Hour,Minute]
End of Data Dictionary
1,ARCHSIM,  37.57, 126.97,   9.00,  87.10
4,31, 1
8,51566344.1102069,7056.14998771303, 1,16,15,23520.4999590434, 1, 1,15
9,30990891.4367211,4240.68027322406, 1,16,15,14135.6009107469, 1, 1,15
71,34526772.2259574,0.0, 1, 1,15,42054.5337709589, 1,20,15
93,20750267.7992496,0.0, 1, 1,15,25274.3822158948, 1,20,15
125,41814222.1494104,6007.79053870842, 1, 1,15,30038.9526935421, 1,20,15
137,25129957.1746611,3610.62603084211, 1, 1,15,18053.1301542106, 1,20,15
138,1224406704.86585,0.0, 1, 1,15,2110867.1150301,14,12,30
139,0.0,0.0, 1, 1,15,0.0, 1, 1,15
140,28.2499172853515,17.4224078282847,22, 8,45,43.4156113270924, 4,15,45
141,26.8440106509701,20.0214887306949,22, 9,15,32.6448763390538, 4,22,30
142,27.5412503106951,19.9999999999998,22, 2,45,42.9256386874624, 4,15,30
143,27.8955837980233,18.7112039141423,22, 8,45,43.1588355809179, 4,15,30
144,26.1252528749709,20.,22, 7,60,32.0528428721862, 4,20,60
145,26.4846317629705,20.0107443653474,22, 9,15,32.3341084044303, 4,22,15
146,293015133.850668,16006.4820232106, 3, 9,33,146253.582872868,14,15,15
147,0.0,0.0, 1, 1, 7,0.0, 1, 1, 7
148,0.388541587721514,0.372024589569746, 6, 8,45,0.40778779234173,14,14,60
149,168429252.407367,9726.2393982149, 3,12,18,77410.7769263153,10,24,60
150,0.0,0.0, 1, 1, 7,0.0, 1, 1, 7
151,0.386747710300478,0.370270316063744, 6,15,60,0.398826619460868,11, 1, 7
224,27.5412503106951,19.9999999999998,22, 2,45,42.9256386874624, 4,15,30
225,14.5833344937313,3.32949358025122,16,15,30,33.3681800360576, 2, 7,60
258,26.1252528749709,20.,22, 7,60,32.0555188105422, 4,20,60
259,14.6935774331941,5.10320909076923,14,19,60,28.6846403974956, 2, 7,60
260,40826635.7806552,0.0, 1, 1, 7,342974.285637959,22, 8,45
291,0.0,0.0, 1, 1, 7,0.0, 1, 1, 7
322,40826635.7806559,0.0, 1, 1, 7,342974.285637968,22, 8,45
323,863513.292372967,0.0, 1, 1, 7,45014.7133323752,22, 8,60
324,0.0,0.0, 1, 1, 7,0.0, 1, 1, 7
325,863513.292372992,0.0, 1, 1, 7,45014.7133323761,22, 8,60
408,103312071.454798,0.0, 1, 1, 7,166632.373314191, 1, 7,15
461,62089590.5227593,0.0, 1, 1, 7,100144.50084316, 1, 7,15
4,59, 2
8,46551773.5189389,7056.14998771303, 1, 9,15,23520.4999590434, 1, 1,15
9,27977181.32255,4240.68027322406, 1, 9,15,14135.6009107469, 1, 1,15
71,31204464.0580516,0.0, 1, 1,15,42054.5337709589, 1,20,15
93,18753591.6041939,0.0, 1, 1,15,25274.3822158948, 1,20,15
125,37776986.9073984,6007.79053870842, 1, 1,15,30038.9526935421, 1,19,15
137,22703616.4819352,3610.62603084211, 1, 1,15,18053.1301542106, 1,19,15
138,1134618925.20822,0.0, 1, 1,15,2109384.09620433, 9,12,30
139,0.0,0.0, 1, 1,15,0.0, 1, 1,15
140,30.4563366083733,17.6322669162095, 4, 7,30,48.0637536885842,28,15,30
141,28.7491978913331,19.9693357168858, 4, 8,60,37.8949886654343,28,21,30
142,29.72211765008,19.9999999999999, 1, 7,60,47.392060393747,28,15,15
143,30.0892271292266,18.8161334581047, 4, 7,30,47.7171609743156,28,15,15
144,28.0601195495235,20., 4, 8,60,37.2487726427173,28,20,60
145,28.4046587204283,19.9846678584429, 4, 8,60,37.5635857987224,28,20,60
146,260123244.696825,17198.1550585364,20,10, 3,149389.090035339, 7,14,60
147,0.0,0.0, 1, 1, 7,0.0, 1, 1, 7
148,0.38735407023625,0.369531161906099, 3,15,60,0.40992093536119, 7,15,30
149,148772154.589152,8734.23950366672,21,12,33,87073.3559447434, 8, 1,45
150,0.0,0.0, 1, 1, 7,0.0, 1, 1, 7
151,0.385286365899406,0.371594356013548,23,15,60,0.40470731974677, 7,24,52
224,29.72211765008,19.9999999999999, 1, 7,60,47.392060393747,28,15,15
225,14.4370429132174,2.85713331223502, 9,15,30,38.2271625123583, 3,22,15
258,28.0601195495235,20., 4, 8,60,37.250399094407,28,20,60
259,14.7023388425213,4.51999213870484, 9,17,60,36.2801401240503, 3,22,30
260,24375322.2051034,0.0, 1, 1, 7,295500.912842773, 4, 7,30
291,0.0,0.0, 1, 1, 7,0.0, 1, 1, 7
322,24375322.205104,0.0, 1, 1, 7,295500.912842776, 4, 7,30
323,591127.285977115,0.0, 1, 1, 7,33625.7128429516, 4, 8,60
324,0.0,0.0, 1, 1, 7,0.0, 1, 1, 7
325,591127.285977133,0.0, 1, 1, 7,33625.7128429534, 4, 8,60
408,93314129.0559468,0.0, 1, 1, 7,166632.373314191, 1, 7,15
461,56080920.4721698,0.0, 1, 1, 7,100144.50084316, 1, 7,15
4,90, 3
8,51378180.1105346,7056.14998771303, 1, 9,15,23520.4999590434, 1, 1,15
9,30877806.6294351,4240.68027322406, 1, 9,15,14135.6009107469, 1, 1,15
71,34673963.0941557,0.0, 1, 1,15,42054.5337709589, 1,20,15
93,20838728.1370052,0.0, 1, 1,15,25274.3822158948, 1,20,15
125,41886315.6358749,6007.79053870842, 1, 1,15,30038.9526935421, 1,19,15
137,25173284.6870313,3610.62603084211, 1, 1,15,18053.1301542106, 1,19,15
138,1140898250.82968,0.0, 1, 1,15,1797437.96986793, 6,12,15
139,0.0,0.0, 1, 1,15,0.0, 1, 1,15
140,33.0987339159072,21.7707819739411, 9, 7,45,47.886305680677,19,15,15
141,31.9572087435254,26.0002415493852,28, 9,45,38.3650850687235,19,22,30
142,32.2910848511884,20.9984606345245, 9, 7,45,47.4537168747432,19,15,15
143,32.6949093835478,21.3846213042328, 9, 7,45,47.6700112777101,19,15,15
144,31.308404047171,25.420096193853,28,10,15,37.9037920498668,19,21,30
145,31.6328063953482,25.7125474045761,28,10,15,38.1277361945351,19,21,60
146,263442591.941512,20419.321491192,11,10,48,120900.038080311, 7,14,30
147,0.0,0.0, 1, 1, 7,0.0, 1, 1, 7
148,0.383104818099061,0.371717202423077,31, 7,30,0.399836479297831, 7,14,30
149,154901360.283297,10401.8603708771,11,10,48,70807.9340665338, 8, 3,60
150,0.0,0.0, 1, 1, 7,0.0, 1, 1, 7
151,0.381921934388237,0.368382546084726,30,15,60,0.394658608908793, 8, 3,60
224,32.2910848511884,20.9984606345245, 9, 7,45,47.4537168747432,19,15,15
225,15.8583587651248,4.01700135475586, 7,14,60,33.9217210661033,28, 6,60
258,31.308404047171,25.4001268836226,28,10,15,37.9037920498668,19,21,30
259,16.1253633851747,5.88841353924768, 7,17,60,27.8597346427516,28, 7,60
260,0.0,0.0, 1, 1, 7,0.0, 1, 1, 7
291,0.0,0.0, 1, 1, 7,0.0, 1, 1, 7
322,0.0,0.0, 1, 1, 7,0.0, 1, 1, 7
323,0.0,0.0, 1, 1, 7,0.0, 1, 1, 7
324,0.0,0.0, 1, 1, 7,0.0, 1, 1, 7
325,0.0,0.0, 1, 1, 7,0.0, 1, 1, 7
408,103312071.454798,0.0, 1, 1, 7,166632.373314191, 1, 7,15
461,62089590.5227593,0.0, 1, 1, 7,100144.50084316, 1, 7,15
4,120, 4
8,50145705.9126807,7056.14998771303, 1,15,15,23520.4999590434, 1, 1,15
9,30137101.141712,4240.68027322406, 1,15,15,14135.6009107469, 1, 1,15
71,33223081.6790576,0.0, 1, 1,15,42054.5337709589, 1,19,15
93,19966761.9505569,0.0, 1, 1,15,25274.3822158948, 1,19,15
125,40372352.4201204,6007.79053870842, 1, 1,15,30038.9526935421, 1,19,15
137,24263406.927259,3610.62603084211, 1, 1,15,18053.1301542106, 1,19,15
138,774795871.630393,0.0, 1, 1,15,1496355.84969995, 2,11,60
139,0.0,0.0, 1, 1,15,0.0, 1, 1,15
140,31.2365929799921,19.5888740863036,26, 6,45,47.9007995078952,10,15,15
141,30.6230580255699,22.7041597166487,26,10,30,40.5114577029262,10,21,60
142,30.664065692162,20.,26, 6,60,47.3934345388017,10,14,45
143,30.950329336077,19.7944370431518,26, 6,45,47.6358731986661,10,14,45
144,30.2241255316628,22.3178074995575,26,11,15,40.206971919909,10,19,60
145,30.4235917786163,22.513315313454,26,10,30,40.3038713757278,10,21,15
146,183209009.408947,14141.0937044504,27, 9,50,102576.091804735,11,22,60
147,0.0,0.0, 1, 1,15,0.0, 1, 1,15
148,0.372542496271809,0.364336997095953,19,12,60,0.385993055466257, 1,14,30
149,108841522.009836,7381.35393480775,27,11,45,63055.2472804705,11,22,60
150,0.0,0.0, 1, 1,15,0.0, 1, 1,15
151,0.372043423331023,0.357474772790167,19,12,60,0.384005276217357, 1, 3,22
224,30.664065692162,20.,26, 6,60,47.3934345388017,10,14,45
225,25.3846658728448,7.71586848535739,11,16,60,53.4915287039823,20,23,45
258,30.2241255316628,22.3091231832878,26,11,15,40.2101622899573,10,19,60
259,25.0523914496486,9.95338258323993,11,16,60,45.1187498873161,25, 2,30
260,920219.856294932,0.0, 1, 1,15,72384.4693666605,26, 6,45
291,0.0,0.0, 1, 1,15,0.0, 1, 1,15
322,920219.85629496,0.0, 1, 1,15,72384.4693666649,26, 6,45
323,0.0,0.0, 1, 1,15,0.0, 1, 1,15
324,0.0,0.0, 1, 1,15,0.0, 1, 1,15
325,0.0,0.0, 1, 1,15,0.0, 1, 1,15
408,99979423.9885144,0.0, 1, 1,15,166632.373314191, 1, 6,15
461,60086700.5058962,0.0, 1, 1,15,100144.50084316, 1, 6,15
4,151, 5
8,51378180.1105346,7056.14998771303, 1, 8,15,23520.4999590434, 1, 1,15
9,30877806.6294351,4240.68027322406, 1, 8,15,14135.6009107469, 1, 1,15
71,34673963.0941557,0.0, 1, 1,15,42054.5337709589, 1,19,15
93,20838728.1370052,0.0, 1, 1,15,25274.3822158948, 1,19,15
125,41886315.6358749,6007.79053870842, 1, 1,15,30038.9526935421, 1,18,15
137,25173284.6870313,3610.62603084211, 1, 1,15,18053.1301542106, 1,18,15
138,562649864.420007,0.0, 1, 1,15,935082.444486195, 5,11,30
139,0.0,0.0, 1, 1,15,0.0, 1, 1,15
140,31.2223631086793,22.9443354382284,30, 6,45,39.646573811314,26,15,60
141,31.0965816466931,25.3746313121921,30, 9,15,36.5927612998524,26,22,60
142,30.8050404484425,22.7171536848376,30, 6,60,39.2340869154909,26,15,60
143,31.0137017785609,22.8334218237129,30, 6,60,39.4403303634024,26,15,60
144,30.8556005253625,25.2537452680605,30, 9,45,36.5380577370708,26,21,60
145,30.9760910860278,25.3156289535506,30, 9,30,36.5503727051181,26,21,60
146,143943258.695472,6301.65708609845,21,19,60,83399.9602105489, 8, 1,60
147,0.0,0.0, 1, 1,15,0.0, 1, 1,15
148,0.365680191407182,0.357442342074104,23,15,60,0.374321587386887, 2,15,22
149,87811567.8563468,0.0,21,19,60,54198.0276687806,17, 5,60
150,204.541141018461,0.0, 1, 1,15,204.541141018461,21,19,60
151,0.36576858265469,0.352607567172115,23,15,60,0.377607541304098, 1, 3,60
224,30.8050404484425,22.7171536848376,30, 6,60,39.2340869154909,26,15,60
225,34.356222172818,13.0933279036446, 8,15,30,63.3597138832335,29, 4,30
258,30.8556005253625,25.2477832796592,30, 9,30,36.5380577370708,26,21,60
259,33.556544720569,16.1758246095409, 8,16,60,56.9474503690937,28,15,30
260,0.0,0.0, 1, 1,15,0.0, 1, 1,15
291,0.0,0.0, 1, 1,15,0.0, 1, 1,15
322,0.0,0.0, 1, 1,15,0.0, 1, 1,15
323,0.0,0.0, 1, 1,15,0.0, 1, 1,15
324,0.0,0.0, 1, 1,15,0.0, 1, 1,15
325,0.0,0.0, 1, 1,15,0.0, 1, 1,15
408,103312071.454798,0.0, 1, 1,15,166632.373314191, 1, 6,15
461,62089590.5227593,0.0, 1, 1,15,100144.50084316, 1, 6,15
4,181, 6
8,49769377.913336,7056.14998771303, 1, 8,15,23520.4999590434, 1, 1,15
9,29910931.52714,4240.68027322406, 1, 8,15,14135.6009107469, 1, 1,15
71,33517463.4154544,0.0, 1, 1,15,42054.5337709589, 1,19,15
93,20143682.6260681,0.0, 1, 1,15,25274.3822158948, 1,19,15
125,40516539.3930495,6007.79053870842, 1, 1,15,30038.9526935421, 1,18,15
137,24350061.9519992,3610.62603084211, 1, 1,15,18053.1301542106, 1,18,15
138,483432539.430579,0.0, 1, 1,15,774433.348885153, 1,11,30
139,0.0,0.0, 1, 1,15,0.0, 1, 1,15
140,34.5897673992955,27.8676938220664, 1, 6,60,42.1941791649848,10,16,30
141,34.3677387920564,29.7875147605261, 1, 9,45,39.4221710416229,11,22,60
142,34.2275865737924,27.3792885412631, 1, 5,60,41.7927656724328,10,16,15
143,34.4086769865439,27.6556308717925, 1, 6,60,41.9930422385351,10,16,15
144,34.1738054240574,29.459535008872, 1, 9,45,39.4353377273155,11,20,60
145,34.2707721080569,29.6235248846991, 1, 9,45,39.3843952589365,11,20,60
146,130690882.991669,12172.5546516595,15,10, 7,66338.2871179903, 8, 3,15
147,0.0,0.0, 1, 1,15,0.0, 1, 1,15
148,0.36325241901843,0.356841109437637,14,15,60,0.37066926407419,12, 3,22
149,79225702.4606416,2460.65465706091, 1,15,60,45671.09554038,12, 7,15
150,0.0,0.0, 1, 1,15,0.0, 1, 1,15
151,0.363206544822921,0.353765099715593,15,15,60,0.373740363119258,12, 6,45
224,34.2275865737924,27.3792885412631, 1, 5,60,41.7927656724328,10,16,15
225,39.4145601490577,14.216621710046, 1,14,60,67.6736936979688,14, 5,60
258,34.1738054240574,29.4561290160049, 1, 9,37,39.4353377273155,11,20,60
259,39.018636889027,17.3938660785425, 1,15,15,61.2922140911642,14, 5,60
260,0.0,0.0, 1, 1,15,0.0, 1, 1,15
291,0.0,0.0, 1, 1,15,0.0, 1, 1,15
322,0.0,0.0, 1, 1,15,0.0, 1, 1,15
323,0.0,0.0, 1, 1,15,0.0, 1, 1,15
324,0.0,0.0, 1, 1,15,0.0, 1, 1,15
325,0.0,0.0, 1, 1,15,0.0, 1, 1,15
408,99979423.9885144,0.0, 1, 1,15,166632.373314191, 1, 6,15
461,60086700.5058962,0.0, 1, 1,15,100144.50084316, 1, 6,15
4,212, 7
8,51754508.1098793,7056.14998771303, 1,15,15,23520.4999590434, 1, 1,15
9,31103976.244007,4240.68027322406, 1,15,15,14135.6009107469, 1, 1,15
71,34379581.357759,0.0, 1, 1,15,42054.5337709589, 1,19,15
93,20661807.461494,0.0, 1, 1,15,25274.3822158948, 1,19,15
125,41742128.6629459,6007.79053870842, 1, 1,15,30038.9526935421, 1,19,15
137,25086629.662291,3610.62603084211, 1, 1,15,18053.1301542106, 1,19,15
138,429403157.113144,0.0, 1, 1,15,765495.835997034,28,11,30
139,0.0,0.0, 1, 1,15,0.0, 1, 1,15
140,27.0353103684162,23.9937487606763,12, 6,30,37.0116850659921, 1,14,15
141,25.8329896184844,24.5468841113842,17,22,15,33.7354958309627, 1, 1,15
142,25.9646760029148,23.9433817041415, 2,14,15,36.7014840111827, 1,13,60
143,26.4999931856655,24.0454488941985,12, 4,30,36.7922863876857, 1,13,60
144,25.3866849515632,23.9622335588203, 3,14,15,33.3789204996135, 1, 1,15
145,25.6098372850238,24.2769194009371,17,21,60,33.5572081652881, 1, 1,15
146,27758780.2918025,0.0, 1,14, 2,43154.2593793643, 1, 1,15
147,22830130.6725705,0.0, 1, 1,15,52517.8767531452,30,14,30
148,0.350870014406098,0.341567886839063,20,15,60,0.360750748216035, 1, 1,60
149,13921271.3622272,0.0, 1,14, 2,30091.9671437897, 1, 3,60
150,13518764.8654714,0.0, 1, 1,15,30055.4230091174,30,14,45
151,0.350195070856017,0.341555137487468,20,15,60,0.363049918701941, 1, 3,60
224,25.9646760029148,23.36221162189, 2,14, 5,36.7014840111827, 1,13,60
225,71.6481281792301,41.5409607500884,12,13,60,91.1893843095384, 2,14, 3
258,25.3866849515632,23.5499855257595,24,14, 3,33.3789204996135, 1, 1,15
259,73.9320092304635,51.560237111851, 1,13,60,90.6635626260595, 2,14, 3
260,0.0,0.0, 1, 1,15,0.0, 1, 1,15
291,435721844.079654,0.0, 1, 1,15,1676869.78781178, 1,14,45
322,4.727031353013445E-006,0.0, 1, 1,15,1.725084075587802E-007, 1,14,45
323,0.0,0.0, 1, 1,15,0.0, 1, 1,15
324,149010412.744,0.0, 1, 1,15,823572.206656271, 1,14,45
325,1.102957298826368E-006,0.0, 1, 1,15,4.573621481540613E-008, 1,14,60
408,103312071.454798,0.0, 1, 1,15,166632.373314191, 1, 6,15
461,62089590.5227593,0.0, 1, 1,15,100144.50084316, 1, 6,15
4,243, 8
8,51378180.1105346,7056.14998771303, 1, 8,15,23520.4999590434, 1, 1,15
9,30877806.6294351,4240.68027322406, 1, 8,15,14135.6009107469, 1, 1,15
71,34673963.0941557,0.0, 1, 1,15,42054.5337709589, 1,19,15
93,20838728.1370052,0.0, 1, 1,15,25274.3822158948, 1,19,15
125,41886315.6358749,6007.79053870842, 1, 1,15,30038.9526935421, 1,18,15
137,25173284.6870313,3610.62603084211, 1, 1,15,18053.1301542106, 1,18,15
138,640244873.341826,0.0, 1, 1,15,1281879.22232936,30,11,45
139,0.0,0.0, 1, 1,15,0.0, 1, 1,15
140,27.9642924993845,23.2587764169918,26, 6,60,39.9736237895968,30,14,15
141,26.0031102967286,24.4923196929673,26, 7,60,28.6114139097877, 7,14,15
142,26.5006407835329,23.0510024700445,26, 6,60,39.8076534781751,30,13,60
143,27.2324666414588,23.1548894435181,26, 6,60,39.7696942128241,30,13,60
144,25.4298683936044,23.9587576571833,25,14,15,28.7859795631125, 7,13,60
145,25.7164893451665,24.4044022504394,25,21,60,28.6286055583738, 7,13,60
146,32796110.8110112,0.0, 1,14, 1,51890.4507605954,27,13,45
147,24338547.2118922,0.0, 1, 1,15,52057.7124735509, 7,16,15
148,0.350955634668836,0.339142663454237, 7,15,60,0.362492389769409,30,13,37
149,14384966.6842124,0.0, 1,13,30,20486.7295363544,28, 6,60
150,14585179.4289818,0.0, 1, 1,15,30954.2181834576, 7,15,60
151,0.349710131012351,0.33913447435353, 7,15,60,0.358258969438757,28, 6,60
224,26.5006407835329,23.0510024700445,26, 6,60,39.8076534781751,30,13,60
225,68.8603854559762,27.0105711939908,30,13,60,92.7009850598509, 2, 5,60
258,25.4298683936044,23.5849831631001,25,14, 5,28.7859795631125, 7,13,60
259,72.51891418,49.4120259306131,30,13,60,93.3686509559437, 2, 5,60
260,0.0,0.0, 1, 1,15,0.0, 1, 1,15
291,614730099.210403,0.0, 1, 1,15,2172373.12283082,30,14,45
322,6.683087576675462E-006,0.0, 1, 1,15,1.845819497248158E-007,18,14,60
323,0.0,0.0, 1, 1,15,0.0, 1, 1,15
324,182122018.018403,0.0, 1, 1,15,383695.528804635, 7,14,45
325,1.096218795737514E-006,0.0, 1, 1,15,3.097682110819733E-008,29,16,15
408,103312071.454798,0.0, 1, 1,15,166632.373314191, 1, 6,15
461,62089590.5227593,0.0, 1, 1,15,100144.50084316, 1, 6,15
4,273, 9
8,49957541.9130084,7056.14998771303, 1, 8,15,23520.4999590434, 1, 1,15
9,30024016.334426,4240.68027322406, 1, 8,15,14135.6009107469, 1, 1,15
71,33370272.547256,0.0, 1, 1,15,42054.5337709589, 1,19,15
93,20055222.2883125,0.0, 1, 1,15,25274.3822158948, 1,19,15
125,40444445.906585,6007.79053870842, 1, 1,15,30038.9526935421, 1,18,15
137,24306734.4396291,3610.62603084211, 1, 1,15,18053.1301542106, 1,18,15
138,780878534.937546,0.0, 1, 1,15,1576909.79046228,19,11,45
139,0.0,0.0, 1, 1,15,0.0, 1, 1,15
140,27.6095324114955,22.5269475537351,30, 7,30,42.1129591489633,22,14,15
141,25.6769402541431,24.0265818380802,30, 8,15,28.6063464146217, 7,14,15
142,26.0174858775178,22.2737950107827,30, 7,30,41.9000809870481,22,13,60
143,26.8135091445067,22.4003712822589,30, 7,30,41.8436308142942,22,13,60
144,25.0470299926604,23.8949598645653,30, 7,60,28.6606860312771, 7,13,60
145,25.3619851234017,23.9633477210699,30, 7,60,28.536738765827, 7,13,60
146,59476177.7021151,0.0, 1,14, 2,54238.5418111462,16,13,60
147,2574454.03476076,0.0, 1, 1,15,22818.9702668059,20,18,60
148,0.35529797411585,0.342592493017149, 6,15,60,0.371905612663359,21,13,37
149,30292152.8284463,0.0, 1,14, 1,30117.5217343391,15,24,60
150,1580887.65771235,0.0, 1, 1,15,15568.3696578374,20,18,60
151,0.354164208044399,0.342592632577551, 6,15,60,0.363288678537067,30,24,60
224,26.0174858775178,22.2737950107827,30, 7,30,41.9702054736393,22,13,60
225,59.4147323087693,18.0138436777231,20,13,60,86.3109682598005, 9, 6,60
258,25.0470299926604,23.5405928493043,17,14, 3,28.6606860312771, 7,13,60
259,61.1738468059276,33.4393385913,16,13,60,83.91915762777, 9, 6,60
260,0.0,0.0, 1, 1,15,0.0, 1, 1,15
291,599776462.15483,0.0, 1, 1,15,2532174.07623818,22,14,45
322,1.214808946770063E-005,0.0, 1, 1,15,1.399712346028537E-007,22,14,45
323,0.0,0.0, 1, 1,15,0.0, 1, 1,15
324,148528610.695111,0.0, 1, 1,15,383682.993955306, 7,14,45
325,2.682886872662493E-006,0.0, 1, 1,15,3.315108187962323E-008,25,15,30
408,99979423.9885144,0.0, 1, 1,15,166632.373314191, 1, 6,15
461,60086700.5058962,0.0, 1, 1,15,100144.50084316, 1, 6,15
4,304,10
8,51566344.1102069,7056.14998771303, 1,15,15,23520.4999590434, 1, 1,15
9,30990891.4367211,4240.68027322406, 1,15,15,14135.6009107469, 1, 1,15
71,34526772.2259574,0.0, 1, 1,15,42054.5337709589, 1,19,15
93,20750267.7992496,0.0, 1, 1,15,25274.3822158948, 1,19,15
125,41814222.1494104,6007.79053870842, 1, 1,15,30038.9526935421, 1,19,15
137,25129957.1746611,3610.62603084211, 1, 1,15,18053.1301542106, 1,19,15
138,1042486351.53487,0.0, 1, 1,15,1925338.42123421,31,11,30
139,0.0,0.0, 1, 1,15,0.0, 1, 1,15
140,38.0846887174368,22.5381480476699, 1, 7,30,51.8641014029845,17,14,45
141,36.7690243190875,24.240031806473, 1, 8,15,42.7467455437794,17,21,60
142,37.4266960650849,22.1816448415714, 1, 7,30,51.3755639409308,17,14,30
143,37.7556923912609,22.3598964446207, 1, 7,30,51.6194655393585,17,14,45
144,36.2644206411866,23.9919100483199, 1, 7,60,42.2849005301372,17,19,60
145,36.5167224801371,24.1221122248644, 1, 7,60,42.5114140524877,17,21,45
146,230284866.962836,12012.2429304146,29, 8,18,116874.434461588,15,14,15
147,0.0,0.0, 1, 1,15,0.0, 1, 1,15
148,0.37687620071616,0.360863821143684, 1, 6,60,0.393385636019138,31,13,37
149,133772785.019315,5431.5505243902, 1,12,35,72753.421919752,15,24,60
150,0.0,0.0, 1, 1,15,0.0, 1, 1,15
151,0.375504527930205,0.359039065055745, 1,12,60,0.386747912698956,31,21,60
224,37.4266960650849,22.1816448415714, 1, 7,30,51.3755639409308,17,14,30
225,23.5777815836987,5.49952882423851,19,14,60,52.409836370709,28,24,45
258,36.2644206411866,23.979865181405, 1, 7,60,42.2849005301372,17,19,60
259,23.9136334522125,9.60244068541577,19,16,22,48.3966611195327, 1, 1,15
260,0.0,0.0, 1, 1,15,0.0, 1, 1,15
291,0.0,0.0, 1, 1,15,0.0, 1, 1,15
322,0.0,0.0, 1, 1,15,0.0, 1, 1,15
323,0.0,0.0, 1, 1,15,0.0, 1, 1,15
324,0.0,0.0, 1, 1,15,0.0, 1, 1,15
325,0.0,0.0, 1, 1,15,0.0, 1, 1,15
408,103312071.454798,0.0, 1, 1,15,166632.373314191, 1, 6,15
461,62089590.5227593,0.0, 1, 1,15,100144.50084316, 1, 6,15
4,334,11
8,49769377.913336,7056.14998771303, 1, 9,15,23520.4999590434, 1, 1,15
9,29910931.5271401,4240.68027322406, 1, 9,15,14135.6009107469, 1, 1,15
71,33517463.4154543,0.0, 1, 1,15,42054.5337709589, 1,20,15
93,20143682.6260681,0.0, 1, 1,15,25274.3822158948, 1,20,15
125,40516539.3930494,6007.79053870842, 1, 1,15,30038.9526935421, 1,19,15
137,24350061.9519993,3610.62603084211, 1, 1,15,18053.1301542106, 1,19,15
138,1019699329.74938,0.0, 1, 1,15,1926657.78439262,27,11,60
139,0.0,0.0, 1, 1,15,0.0, 1, 1,15
140,32.1522415066979,19.0042685138977,11, 7,60,49.2418499576851, 6,15,15
141,31.3217464709496,22.9852605730683,11, 9,45,40.1448053463735, 7,21,60
142,31.4509248362293,19.9999999999999,11, 5,30,48.8574160542269, 6,14,60
143,31.8015831714637,19.5021342569489,11, 7,60,49.0361816448019, 6,15,15
144,30.7575758839236,22.492526136825,11, 8,60,39.7547621643496, 7,20,60
145,31.0396611774366,22.7680945129599,11, 8,60,39.9362981942656, 7,20,60
146,230426766.289776,13499.1921071417,25, 9,33,114423.596217609,26,13,60
147,0.0,0.0, 1, 1,15,0.0, 1, 1,15
148,0.379535926522531,0.367754134131771,19, 8,15,0.395815891966842,22,15,15
149,136559873.058324,8010.64793768631,24,11,48,64420.568445944,23, 7,30
150,0.0,0.0, 1, 1,15,0.0, 1, 1,15
151,0.378712452917494,0.367425015629024, 5,14,60,0.389843377450638,23, 7,30
224,31.4509248362293,19.9999999999999,11, 5,30,48.8574160542269, 6,14,60
225,23.0021782384694,6.66123342599094,27,15,15,46.5758714367138,19, 8,15
258,30.7575758839236,22.492526136825,11, 8,60,39.7547621643496, 7,20,60
259,23.0254686580613,10.9986967742633,23,15,52,39.4009072014339,19,11,15
260,2941162.34117754,0.0, 1, 1,15,142804.274223345,11, 7,60
291,0.0,0.0, 1, 1,15,0.0, 1, 1,15
322,2941162.34117759,0.0, 1, 1,15,142804.274223345,11, 7,60
323,0.0,0.0, 1, 1,15,0.0, 1, 1,15
324,0.0,0.0, 1, 1,15,0.0, 1, 1,15
325,0.0,0.0, 1, 1,15,0.0, 1, 1,15
408,99979423.9885144,0.0, 1, 1,15,166632.373314191, 1, 7,15
461,60086700.5058962,0.0, 1, 1,15,100144.50084316, 1, 7,15
4,365,12
8,51754508.1098793,7056.14998771303, 1, 9,15,23520.4999590434, 1, 1,15
9,31103976.244007,4240.68027322406, 1, 9,15,14135.6009107469, 1, 1,15
71,34379581.357759,0.0, 1, 1,15,42054.5337709589, 1,20,15
93,20661807.461494,0.0, 1, 1,15,25274.3822158948, 1,20,15
125,41742128.6629459,6007.79053870842, 1, 1,15,30038.9526935421, 1,19,15
137,25086629.662291,3610.62603084211, 1, 1,15,18053.1301542106, 1,19,15
138,1206975731.54852,0.0, 1, 1,15,2091441.64394219,31,12,30
139,0.0,0.0, 1, 1,15,0.0, 1, 1,15
140,28.8605219799176,17.6798620007511,31, 7,45,42.2325769384923, 9,15,30
141,27.4843931805486,20.4899186845508,31, 9,45,32.0595131215171,28,22,15
142,28.1492961705252,19.9999999999998,31, 6,15,41.6371031382646, 9,15,15
143,28.5049090752214,18.8399310003756,31, 7,45,41.9176143046202, 9,15,30
144,26.7908152628147,20.,31, 8,60,31.6415707975937,28,20,60
145,27.1376042216816,20.2449593422754,31, 9,45,31.8319167656212,28,20,60
146,282569236.097585,16962.749772233,25, 9,18,152529.959739268,31,14,60
147,0.0,0.0, 1, 1,15,0.0, 1, 1,15
148,0.386813493765041,0.370495767911077,25, 3,60,0.41073134297249,31,14,45
149,162642131.913301,10122.6318600664, 7,11,33,74922.4446792717,31,23,60
150,0.0,0.0, 1, 1,15,0.0, 1, 1,15
151,0.385097580424721,0.371989965594064,29,15,60,0.400329002548648,31,22,37
224,28.1492961705252,19.9999999999998,31, 6,15,41.6371031382646, 9,15,15
225,15.9100191503171,3.73392550945419,20,14,45,39.6201737992641,25, 4,30
258,26.7908152628147,20.,31, 8,60,31.6415707975937,28,20,60
259,16.0233624452757,5.93967620202088,15,17,37,33.4844574559883,25, 4,60
260,29803338.8421,0.0, 1, 9, 7,322016.297214794,31, 6,60
291,0.0,0.0, 1, 1,15,0.0, 1, 1,15
322,29803338.8421006,0.0, 1, 9, 7,322016.297214796,31, 6,60
323,170865.621384925,0.0, 1, 1,15,14397.4927180643,31, 9,30
324,0.0,0.0, 1, 1,15,0.0, 1, 1,15
325,170865.621384932,0.0, 1, 1,15,14397.4927180651,31, 9,30
408,103312071.454798,0.0, 1, 1,15,166632.373314191, 1, 7,15
461,62089590.5227593,0.0, 1, 1,15,100144.50084316, 1, 7,15
End of Data
 Number of Records Written=         384
