Program Version,EnergyPlus, Version 8.4.0-09f5359d8a, YMD=2023.08.02 14:39
1,5,Environment Title[],Latitude[deg],Longitude[deg],Time Zone[],Elevation[m]
2,6,Day of Simulation[],Month[],Day of Month[],DST Indicator[1=yes 0=no],Hour[],StartMinute[],EndMinute[],DayType
3,3,Cumulative Day of Simulation[],Month[],Day of Month[],DST Indicator[1=yes 0=no],DayType  ! When Daily Report Variables Requested
4,2,Cumulative Days of Simulation[],Month[]  ! When Monthly Report Variables Requested
5,1,Cumulative Days of Simulation[] ! When Run Period Report Variables Requested
8,9,PERIM,Zone People Total Heating Energy [J] !Monthly  [Value,Min,Day,Hour,Minute,Max,Day,Hour,Minute]
9,9,CORE,Zone People Total Heating Energy [J] !Monthly  [Value,Min,Day,Hour,Minute,Max,Day,Hour,Minute]
71,9,PERIM,Zone Lights Electric Energy [J] !Monthly  [Value,Min,Day,Hour,Minute,Max,Day,Hour,Minute]
93,9,CORE,Zone Lights Electric Energy [J] !Monthly  [Value,Min,Day,Hour,Minute,Max,Day,Hour,Minute]
125,9,PERIM,Zone Electric Equipment Electric Energy [J] !Monthly  [Value,Min,Day,Hour,Minute,Max,Day,Hour,Minute]
137,9,CORE,Zone Electric Equipment Electric Energy [J] !Monthly  [Value,Min,Day,Hour,Minute,Max,Day,Hour,Minute]
138,9,PERIM,Zone Windows Total Transmitted Solar Radiation Energy [J] !Monthly  [Value,Min,Day,Hour,Minute,Max,Day,Hour,Minute]
139,9,CORE,Zone Windows Total Transmitted Solar Radiation Energy [J] !Monthly  [Value,Min,Day,Hour,Minute,Max,Day,Hour,Minute]
140,9,PERIM,Zone Mean Radiant Temperature [C] !Monthly [Value,Min,Day,Hour,Minute,Max,Day,Hour,Minute]
141,9,CORE,Zone Mean Radiant Temperature [C] !Monthly [Value,Min,Day,Hour,Minute,Max,Day,Hour,Minute]
142,9,PERIM,Zone Mean Air Temperature [C] !Monthly [Value,Min,Day,Hour,Minute,Max,Day,Hour,Minute]
143,9,PERIM,Zone Operative Temperature [C] !Monthly [Value,Min,Day,Hour,Minute,Max,Day,Hour,Minute]
144,9,CORE,Zone Mean Air Temperature [C] !Monthly [Value,Min,Day,Hour,Minute,Max,Day,Hour,Minute]
145,9,CORE,Zone Operative Temperature [C] !Monthly [Value,Min,Day,Hour,Minute,Max,Day,Hour,Minute]
146,9,PERIM,Zone Infiltration Total Heat Loss Energy [J] !Monthly  [Value,Min,Day,Hour,Minute,Max,Day,Hour,Minute]
147,9,PERIM,Zone Infiltration Total Heat Gain Energy [J] !Monthly  [Value,Min,Day,Hour,Minute,Max,Day,Hour,Minute]
148,9,PERIM,Zone Infiltration Air Change Rate [ach] !Monthly [Value,Min,Day,Hour,Minute,Max,Day,Hour,Minute]
149,9,CORE,Zone Infiltration Total Heat Loss Energy [J] !Monthly  [Value,Min,Day,Hour,Minute,Max,Day,Hour,Minute]
150,9,CORE,Zone Infiltration Total Heat Gain Energy [J] !Monthly  [Value,Min,Day,Hour,Minute,Max,Day,Hour,Minute]
151,9,CORE,Zone Infiltration Air Change Rate [ach] !Monthly [Value,Min,Day,Hour,Minute,Max,Day,Hour,Minute]
224,9,PERIM,Zone Air Temperature [C] !Monthly [Value,Min,Day,Hour,Minute,Max,Day,Hour,Minute]
225,9,PERIM,Zone Air Relative Humidity [%] !Monthly [Value,Min,Day,Hour,Minute,Max,Day,Hour,Minute]
258,9,CORE,Zone Air Temperature [C] !Monthly [Value,Min,Day,Hour,Minute,Max,Day,Hour,Minute]
259,9,CORE,Zone Air Relative Humidity [%] !Monthly [Value,Min,Day,Hour,Minute,Max,Day,Hour,Minute]
260,9,PERIM IDEAL LOADS AIR,Zone Ideal Loads Supply Air Total Heating Energy [J] !Monthly  [Value,Min,Day,Hour,Minute,Max,Day,Hour,Minute]
291,9,PERIM IDEAL LOADS AIR,Zone Ideal Loads Supply Air Total Cooling Energy [J] !Monthly  [Value,Min,Day,Hour,Minute,Max,Day,Hour,Minute]
322,9,PERIM IDEAL LOADS AIR,Zone Ideal Loads Zone Total Heating Energy [J] !Monthly  [Value,Min,Day,Hour,Minute,Max,Day,Hour,Minute]
323,9,CORE IDEAL LOADS AIR,Zone Ideal Loads Supply Air Total Heating Energy [J] !Monthly  [Value,Min,Day,Hour,Minute,Max,Day,Hour,Minute]
324,9,CORE IDEAL LOADS AIR,Zone Ideal Loads Supply Air Total Cooling Energy [J] !Monthly  [Value,Min,Day,Hour,Minute,Max,Day,Hour,Minute]
325,9,CORE IDEAL LOADS AIR,Zone Ideal Loads Zone Total Heating Energy [J] !Monthly  [Value,Min,Day,Hour,Minute,Max,Day,Hour,Minute]
408,9,DHW PERIM,Water Use Equipment Heating Energy [J] !Monthly  [Value,Min,Day,Hour,Minute,Max,Day,Hour,Minute]
461,9,DHW CORE,Water Use Equipment Heating Energy [J] !Monthly  [Value,Min,Day,Hour,Minute,Max,Day,Hour,Minute]
End of Data Dictionary
1,ARCHSIM,  37.57, 126.97,   9.00,  87.10
4,31, 1
8,51566344.107306,7056.14998731617, 1,16,15,23520.4999577206, 1, 1,15
9,30990891.4450105,4240.68027435833, 1,16,15,14135.6009145278, 1, 1,15
71,34526772.2240154,0.0, 1, 1,15,42054.5337685936, 1,20,15
93,20750267.8047997,0.0, 1, 1,15,25274.382222655, 1,20,15
125,41814222.1470591,6007.79053837051, 1, 1,15,30038.9526918526, 1,20,15
137,25129957.1813824,3610.62603180786, 1, 1,15,18053.1301590393, 1,20,15
138,1251195133.74814,0.0, 1, 1,15,2074185.55568924,14,13,30
139,0.0,0.0, 1, 1,15,0.0, 1, 1,15
140,29.0597611256458,17.5409797147864,22, 8,45,45.0790161777671, 4,16,30
141,27.5566341118362,20.2182874895269,22, 9,45,33.7522102653488, 4,22,60
142,28.3048119255312,19.9999999999999,22, 7,60,44.5493210861005, 4,16,15
143,28.6822865255885,18.7704898573931,22, 8,45,44.7933548841341, 4,16,30
144,26.8233852873186,20.,22, 8,45,33.0968358240857, 4,22,30
145,27.1900096995774,20.1091437447635,22, 9,45,33.4218187532304, 4,22,45
146,298663956.422515,20645.2048129954, 2,12,35,148785.658483124,14,16,15
147,0.0,0.0, 1, 1, 7,0.0, 1, 1, 7
148,0.389106984158233,0.372604471301401, 6, 8,45,0.408966389485426,14,16,30
149,171409805.330569,9133.68484918723, 3,13,18,79680.3602253616,10,24,60
150,0.0,0.0, 1, 1, 7,0.0, 1, 1, 7
151,0.387234135835762,0.370479680900604, 6,15,60,0.399937760954477,11, 1, 7
224,28.3048119255312,19.9999999999999,22, 7,60,44.5493210861005, 4,16,15
225,14.3595938104043,3.02018412582049,16,16,15,32.8105047564137, 2, 7,60
258,26.8233852873186,20.,22, 8,45,33.0969988379143, 4,22,30
259,14.4385490525697,5.10477100584559,14,19,60,28.3629231830516, 2, 7,60
260,29905569.2410919,0.0, 1, 1, 7,327669.060117381,22, 8,45
291,0.0,0.0, 1, 1, 7,0.0, 1, 1, 7
322,29905569.2410925,0.0, 1, 1, 7,327669.060117397,22, 8,45
323,523958.303341094,0.0, 1, 1, 7,33837.4448082241,22, 8,60
324,0.0,0.0, 1, 1, 7,0.0, 1, 1, 7
325,523958.303341106,0.0, 1, 1, 7,33837.4448082241,22, 8,60
408,103312071.448987,0.0, 1, 1, 7,166632.373304819, 1, 7,15
461,62089590.5393668,0.0, 1, 1, 7,100144.500869946, 1, 7,15
4,59, 2
8,46551773.5163201,7056.14998731617, 1, 9,15,23520.4999577206, 1, 1,15
9,27977181.3300332,4240.68027435833, 1, 9,15,14135.6009145278, 1, 1,15
71,31204464.0562965,0.0, 1, 1,15,42054.5337685936, 1,20,15
93,18753591.6092099,0.0, 1, 1,15,25274.382222655, 1,20,15
125,37776986.9052741,6007.79053837051, 1, 1,15,30038.9526918526, 1,19,15
137,22703616.4880075,3610.62603180786, 1, 1,15,18053.1301590393, 1,19,15
138,1118555093.72781,0.0, 1, 1,15,2059696.86264175, 7,13,30
139,0.0,0.0, 1, 1,15,0.0, 1, 1,15
140,30.618075462131,17.7001190120427, 4, 7,30,47.3155905013365,28,16,30
141,28.928142797181,20.0576377437791, 4, 9,30,37.5444297682643,28,22,15
142,29.8691637542369,19.9999999999998, 4, 6,30,46.6731431253285,28,16,15
143,30.2436196081839,18.8500595060213, 4, 7,30,46.9873691542575,28,16,15
144,28.2402814420614,20., 4, 7,15,36.8867741334831,28,20,60
145,28.5842121196212,20.0288188718896, 4, 9,30,37.1970397746106,28,21,60
146,259598583.824348,17872.0295143899,21,10,18,151612.981925804, 7,16,45
147,0.0,0.0, 1, 1, 7,0.0, 1, 1, 7
148,0.387132608156317,0.369145559099901, 3,15,60,0.411726891676252, 7,17,22
149,148509734.395705,7941.65177617081,21,13,18,87873.9438568975, 8, 2,45
150,0.0,0.0, 1, 1, 7,0.0, 1, 1, 7
151,0.385112352131364,0.371093766182917,23,15,60,0.404981765743746, 7,24,52
224,29.8691637542369,19.9999999999998, 4, 6,30,46.6731431253285,28,16,15
225,14.4656715338389,2.66940114122688, 9,16,30,38.2776578074089, 3,22,15
258,28.2402814420614,20., 4, 7,15,36.8907059601765,28,20,60
259,14.6665259412404,4.48559364725652, 9,17,60,35.8233843645981, 3,22,30
260,20651995.8747432,0.0, 1, 1, 7,286719.868380923, 4, 7,30
291,0.0,0.0, 1, 1, 7,0.0, 1, 1, 7
322,20651995.8747437,0.0, 1, 1, 7,286719.868380932, 4, 7,30
323,455477.524975425,0.0, 1, 1, 7,29475.2187350825, 4, 8,60
324,0.0,0.0, 1, 1, 7,0.0, 1, 1, 7
325,455477.52497544,0.0, 1, 1, 7,29475.2187350834, 4, 8,60
408,93314129.0506982,0.0, 1, 1, 7,166632.373304819, 1, 7,15
461,56080920.4871701,0.0, 1, 1, 7,100144.500869946, 1, 7,15
4,90, 3
8,51378180.1076442,7056.14998731617, 1, 9,15,23520.4999577206, 1, 1,15
9,30877806.6376943,4240.68027435833, 1, 9,15,14135.6009145278, 1, 1,15
71,34673963.0922055,0.0, 1, 1,15,42054.5337685936, 1,20,15
93,20838728.142579,0.0, 1, 1,15,25274.382222655, 1,20,15
125,41886315.6335196,6007.79053837051, 1, 1,15,30038.9526918526, 1,19,15
137,25173284.6937641,3610.62603180786, 1, 1,15,18053.1301590393, 1,19,15
138,1036665103.15107,0.0, 1, 1,15,1688427.59047232, 6,13,30
139,0.0,0.0, 1, 1,15,0.0, 1, 1,15
140,31.5791645127169,20.8760671294203, 9, 8,60,46.5783303410946,19,16,45
141,30.6480773598381,24.6335458541474,28,11,15,37.4357103377111,19,23,30
142,30.8205978359157,20.2305179046786, 9, 8,15,46.1312852428955,19,16,15
143,31.1998811743163,20.5567084529758, 9, 8,60,46.3417335555142,19,16,30
144,30.051788498533,24.1571080701697,28,11,15,36.9727511961801,19,21,60
145,30.3499329291856,24.3953269621586,28,11,15,37.1765676644051,19,23,15
146,246453281.3129,15007.5258419562, 9,10,48,113720.866410288, 6,16,30
147,0.0,0.0, 1, 1, 7,0.0, 1, 1, 7
148,0.380877268068148,0.369060156279128,29,10,35,0.396887886061385, 7,16,45
149,145230879.565261,7907.75068951966,30,13,50,69692.112391313, 6, 3,60
150,0.0,0.0, 1, 1, 7,0.0, 1, 1, 7
151,0.379965583884266,0.364284174590308,30,15,60,0.393601086728026, 8, 3,60
224,30.8205978359157,20.2305179046786, 9, 8,15,46.1312852428955,19,16,15
225,16.798220690456,4.17325493258881, 7,15,60,34.7565885355307,28, 6,60
258,30.051788498533,24.153352895547,28,11,15,36.9748655079861,19,21,60
259,16.83401067731,6.0374454690906, 7,17,60,29.012776656733,29, 7,60
260,0.0,0.0, 1, 1, 7,0.0, 1, 1, 7
291,0.0,0.0, 1, 1, 7,0.0, 1, 1, 7
322,0.0,0.0, 1, 1, 7,0.0, 1, 1, 7
323,0.0,0.0, 1, 1, 7,0.0, 1, 1, 7
324,0.0,0.0, 1, 1, 7,0.0, 1, 1, 7
325,0.0,0.0, 1, 1, 7,0.0, 1, 1, 7
408,103312071.448987,0.0, 1, 1, 7,166632.373304819, 1, 7,15
461,62089590.5393668,0.0, 1, 1, 7,100144.500869946, 1, 7,15
4,120, 4
8,50145705.9098597,7056.14998731617, 1,15,15,23520.4999577206, 1, 1,15
9,30137101.149773,4240.68027435833, 1,15,15,14135.6009145278, 1, 1,15
71,33223081.677189,0.0, 1, 1,15,42054.5337685936, 1,19,15
93,19966761.9558974,0.0, 1, 1,15,25274.382222655, 1,19,15
125,40372352.4178501,6007.79053837051, 1, 1,15,30038.9526918526, 1,19,15
137,24263406.9337485,3610.62603180786, 1, 1,15,18053.1301590393, 1,19,15
138,659231861.348869,0.0, 1, 1,15,1359744.80165797, 2,13,30
139,0.0,0.0, 1, 1,15,0.0, 1, 1,15
140,29.2658312733781,19.2312043028171,26, 6,45,44.9889916202791,10,16,15
141,28.8840590973851,21.8053431885685,26,11,30,38.1485936553776,10,22,60
142,28.7690241623365,19.9999999999999,26, 6,15,44.612869951308,10,16,15
143,29.0174277178573,19.6156021514085,26, 6,45,44.8009307857935,10,16,15
144,28.5543482089922,21.4405155598635,26,11,30,37.8078528032112,10,20,60
145,28.7192036531886,21.622929374216,26,11,30,37.9514926657572,10,21,60
146,162727320.632135,11430.8844809794,27,11,20,96163.5658026022,11,22,60
147,0.0,0.0, 1, 1,15,0.0, 1, 1,15
148,0.369861475805345,0.358664802803414,19,12,52,0.381633313240938, 1,15,60
149,97480657.231281,2433.12709283063,19,19,60,58411.7246088492,11,22,60
150,0.0,0.0, 1, 1,15,0.0, 1, 1,15
151,0.369636122611747,0.35444558474603,19,12,60,0.381674037912749, 1, 3,22
224,28.7690241623365,19.9999999999999,26, 6,15,44.612869951308,10,16,15
225,27.3442421730552,8.74920211409834,11,16,60,55.5113019211043,20,23,45
258,28.5543482089922,21.4395638934129,26,11,22,37.8078528032112,10,20,60
259,26.7952286573724,11.5686058017804,11,16,60,48.5539551622677,25, 2,15
260,2061865.53322504,0.0, 1, 1,15,91803.1752018454,26, 6,45
291,0.0,0.0, 1, 1,15,0.0, 1, 1,15
322,2061865.5332251,0.0, 1, 1,15,91803.1752018493,26, 6,45
323,0.0,0.0, 1, 1,15,0.0, 1, 1,15
324,0.0,0.0, 1, 1,15,0.0, 1, 1,15
325,0.0,0.0, 1, 1,15,0.0, 1, 1,15
408,99979423.9828909,0.0, 1, 1,15,166632.373304819, 1, 6,15
461,60086700.5219679,0.0, 1, 1,15,100144.500869946, 1, 6,15
4,151, 5
8,51378180.1076442,7056.14998731617, 1, 8,15,23520.4999577206, 1, 1,15
9,30877806.6376943,4240.68027435833, 1, 8,15,14135.6009145278, 1, 1,15
71,34673963.0922055,0.0, 1, 1,15,42054.5337685936, 1,19,15
93,20838728.142579,0.0, 1, 1,15,25274.382222655, 1,19,15
125,41886315.6335196,6007.79053837051, 1, 1,15,30038.9526918526, 1,18,15
137,25173284.6937641,3610.62603180786, 1, 1,15,18053.1301590393, 1,18,15
138,466731744.281734,0.0, 1, 1,15,774037.997112611, 5,13,15
139,0.0,0.0, 1, 1,15,0.0, 1, 1,15
140,29.6170507411576,22.5958777528148,11, 6,60,37.9256828583396,26,16,15
141,29.655635981208,25.2981484039314,30,10,15,35.2822676190145,26,22,60
142,29.2711687077153,22.264912442353,11, 6,60,37.5895208828419,26,16,15
143,29.4441097244364,22.4303950975839,11, 6,60,37.7576018705907,26,16,15
144,29.4797123045977,25.1480689692597,11,11,30,35.2969255952486,26,21,60
145,29.5676741429029,25.2490761033031,30, 9,45,35.2662566246037,26,21,60
146,125893422.447873,2450.58510207111,21,19,60,76089.5746432331, 8, 1,60
147,0.0,0.0, 1, 1,15,0.0, 1, 1,15
148,0.363480203721872,0.355593917342166,23,15,60,0.371760207324732, 1, 3,60
149,77520811.3667457,0.0,11,18,60,50295.4630818501,17, 5,60
150,11730.3319424484,0.0, 1, 1,15,2892.1934958056,11,18,60
151,0.363756002385758,0.350710944694466,23,15,60,0.374834768870033, 1, 3,60
224,29.2711687077153,22.264912442353,11, 6,60,37.5895208828419,26,16,15
225,36.4411190118549,14.5777576463849, 8,15,60,63.6023314996626,29, 4,30
258,29.4797123045977,25.1463482804917,11,11,22,35.2969255952486,26,21,60
259,35.4449921076832,18.0927196916663, 8,17,15,58.0740164813637,28,15,30
260,0.0,0.0, 1, 1,15,0.0, 1, 1,15
291,0.0,0.0, 1, 1,15,0.0, 1, 1,15
322,0.0,0.0, 1, 1,15,0.0, 1, 1,15
323,0.0,0.0, 1, 1,15,0.0, 1, 1,15
324,0.0,0.0, 1, 1,15,0.0, 1, 1,15
325,0.0,0.0, 1, 1,15,0.0, 1, 1,15
408,103312071.448987,0.0, 1, 1,15,166632.373304819, 1, 6,15
461,62089590.5393668,0.0, 1, 1,15,100144.500869946, 1, 6,15
4,181, 6
8,49769377.9105361,7056.14998731617, 1, 8,15,23520.4999577206, 1, 1,15
9,29910931.5351406,4240.68027435833, 1, 8,15,14135.6009145278, 1, 1,15
71,33517463.4135692,0.0, 1, 1,15,42054.5337685936, 1,19,15
93,20143682.631456,0.0, 1, 1,15,25274.382222655, 1,19,15
125,40516539.390771,6007.79053837051, 1, 1,15,30038.9526918526, 1,18,15
137,24350061.9585119,3610.62603180786, 1, 1,15,18053.1301590393, 1,18,15
138,408888204.208589,0.0, 1, 1,15,612092.330850556, 5,13,15
139,0.0,0.0, 1, 1,15,0.0, 1, 1,15
140,33.2996231419569,27.3076655240762, 1, 6,60,39.9746761289286,11,16,30
141,33.2227040590522,28.9477771558401, 1,11,30,37.573816814763,11,22,60
142,32.9989098144468,26.8416651159659, 1, 5,60,39.6550711239144,10,16,30
143,33.1492664782019,27.104395144096, 1, 6,15,39.808313951424,10,16,30
144,33.0822293111579,28.7098251009811, 1,11,30,37.6165815594769,11,20,60
145,33.152466685105,28.8288011284106, 1,11,30,37.5643276650522,11,22,45
146,117001019.278055,9389.0187695609, 1,15,60,61718.748986398, 1, 4,60
147,0.0,0.0, 1, 1,15,0.0, 1, 1,15
148,0.361448785940153,0.355667887609311,15,15,60,0.368778104815898,12, 3,22
149,71510608.7666612,0.0, 1,15,60,42655.6015599152,12, 7,15
150,473.30446132732,0.0, 1, 1,15,473.30446132732, 1,15,60
151,0.361562214290996,0.352669523145193,15,15,60,0.371523594149634,12, 6,60
224,32.9989098144468,26.8416651159659, 1, 5,60,39.6550711239144,10,16,30
225,41.4703350465235,15.4087595431673, 1,15,15,68.1898265782444,14, 5,60
258,33.0822293111579,28.7098251009811, 1,11,30,37.6165815594769,11,20,60
259,40.8903416403736,18.651540860111, 1,15,15,62.3710046569297,14, 5,60
260,0.0,0.0, 1, 1,15,0.0, 1, 1,15
291,0.0,0.0, 1, 1,15,0.0, 1, 1,15
322,0.0,0.0, 1, 1,15,0.0, 1, 1,15
323,0.0,0.0, 1, 1,15,0.0, 1, 1,15
324,0.0,0.0, 1, 1,15,0.0, 1, 1,15
325,0.0,0.0, 1, 1,15,0.0, 1, 1,15
408,99979423.9828909,0.0, 1, 1,15,166632.373304819, 1, 6,15
461,60086700.5219679,0.0, 1, 1,15,100144.500869946, 1, 6,15
4,212, 7
8,51754508.1069677,7056.14998731617, 1,15,15,23520.4999577206, 1, 1,15
9,31103976.2523267,4240.68027435833, 1,15,15,14135.6009145278, 1, 1,15
71,34379581.3558254,0.0, 1, 1,15,42054.5337685936, 1,19,15
93,20661807.4670204,0.0, 1, 1,15,25274.382222655, 1,19,15
125,41742128.6605986,6007.79053837051, 1, 1,15,30038.9526918526, 1,19,15
137,25086629.6690007,3610.62603180786, 1, 1,15,18053.1301590393, 1,19,15
138,372444154.981703,0.0, 1, 1,15,646843.27890265,27,13,30
139,0.0,0.0, 1, 1,15,0.0, 1, 1,15
140,26.7267575050894,24.0869019476297,12, 6,30,35.3907387485902, 1,14,15
141,25.7359229058485,24.5555185188667,17,22,15,33.0610167915203, 1, 1,15
142,25.7424760037292,23.9569448930472, 3,14,15,35.0133594460229, 1,13,60
143,26.2346167544092,24.1393558870407,12, 4,30,35.0848507308176, 1,13,60
144,25.3445335558228,23.9612066767434, 3,14,15,32.7405537811615, 1, 1,15
145,25.5402282308356,24.2812792925009,17,21,60,32.9007852863409, 1, 1,15
146,24441193.4904774,0.0, 1,14, 2,40529.706549755, 1, 1,15
147,23630901.9789666,0.0, 1, 1,15,52945.4979073433,30,14,30
148,0.35025962711855,0.341243516138304,20,15,60,0.35989466688517, 1, 1,60
149,12884239.1791551,0.0, 1,14, 2,28190.3025249604, 1, 3,60
150,14005827.0513879,0.0, 1, 1,15,30104.4219225493,31,15,60
151,0.349794501280553,0.341229968801029,20,15,60,0.362004359350281, 1, 3,60
224,25.7424760037292,23.4454339057028, 2,14, 5,35.0133594460229, 1,13,60
225,72.3872676538723,45.9939538352325,12,13,60,90.8606546902024, 2,14, 3
258,25.3445335558228,23.5264322033075,26,14, 3,32.7405537811615, 1, 1,15
259,74.1205359733064,53.40813455629, 1, 1,15,90.6694241676281, 2,14, 3
260,0.0,0.0, 1, 1,15,0.0, 1, 1,15
291,407741214.299274,0.0, 1, 1,15,1456383.72852957, 1,14,45
322,4.836188360548896E-006,0.0, 1, 1,15,1.264652382815257E-007, 1,16,30
323,0.0,0.0, 1, 1,15,0.0, 1, 1,15
324,137607662.556416,0.0, 1, 1,15,727292.525928924, 1,14,45
325,8.705671260801095E-007,0.0, 1, 1,15,4.440607881406322E-008, 1,14,45
408,103312071.448987,0.0, 1, 1,15,166632.373304819, 1, 6,15
461,62089590.5393668,0.0, 1, 1,15,100144.500869946, 1, 6,15
4,243, 8
8,51378180.1076442,7056.14998731617, 1, 8,15,23520.4999577206, 1, 1,15
9,30877806.6376943,4240.68027435833, 1, 8,15,14135.6009145278, 1, 1,15
71,34673963.0922055,0.0, 1, 1,15,42054.5337685936, 1,19,15
93,20838728.142579,0.0, 1, 1,15,25274.382222655, 1,19,15
125,41886315.6335196,6007.79053837051, 1, 1,15,30038.9526918526, 1,18,15
137,25173284.6937641,3610.62603180786, 1, 1,15,18053.1301590393, 1,18,15
138,549650441.359186,0.0, 1, 1,15,1155380.92663689,29,13,30
139,0.0,0.0, 1, 1,15,0.0, 1, 1,15
140,27.3855135458565,23.3101809239763,26, 6,60,36.9555441244223,30,14,15
141,25.8291279683262,24.4920044580788,26, 8,15,27.7914637434143, 7,14,15
142,26.0335079451104,23.1155360352835,26, 6,60,36.6186833650708,30,13,60
143,26.7095107454834,23.2128584796299,26, 6,60,36.5379273479069,30,13,60
144,25.3488184028939,23.9536378234031,25,14,15,27.9996673214795, 7,13,60
145,25.5889731856101,24.393944552293,25,21,60,27.8383760693844, 7,13,60
146,27144645.2662079,0.0, 1,14, 1,30524.3794672087,28, 6,60
147,25238883.3264304,0.0, 1, 1,15,53367.231552204, 7,15,60
148,0.350054993449597,0.338829481998594, 7,15,60,0.360037597254202,20,13,52
149,13134190.8624365,0.0, 1,13, 7,19881.3615805277,28, 6,60
150,15167605.4444445,0.0, 1, 1,15,31269.5705688578, 7,15,60
151,0.349258960564238,0.338813202931129, 7,15,60,0.35785717531458,28, 6,60
224,26.0335079451104,23.1155360352835,26, 6,60,36.7460024504801,30,13,60
225,70.2080074935239,31.7423771796951,30,13,60,92.4802947065245, 2, 5,60
258,25.3488184028939,23.5431806598185, 2,14, 3,28.0236103051499, 7,13,60
259,72.816090797789,52.625378240066,30,13,60,93.3821109278015, 2, 5,60
260,0.0,0.0, 1, 1,15,0.0, 1, 1,15
291,568218432.942663,0.0, 1, 1,15,1786458.38422857,30,14,45
322,7.796446223855875E-006,0.0, 1, 1,15,1.229864210472442E-007,13,15,45
323,0.0,0.0, 1, 1,15,0.0, 1, 1,15
324,158574229.629857,0.0, 1, 1,15,307786.519899229, 7,14, 1
325,1.244392992459455E-006,0.0, 1, 1,15,4.328057912061922E-008, 5,14,45
408,103312071.448987,0.0, 1, 1,15,166632.373304819, 1, 6,15
461,62089590.5393668,0.0, 1, 1,15,100144.500869946, 1, 6,15
4,273, 9
8,49957541.9101979,7056.14998731617, 1, 8,15,23520.4999577206, 1, 1,15
9,30024016.3424568,4240.68027435833, 1, 8,15,14135.6009145278, 1, 1,15
71,33370272.5453791,0.0, 1, 1,15,42054.5337685936, 1,19,15
93,20055222.2936767,0.0, 1, 1,15,25274.382222655, 1,19,15
125,40444445.9043106,6007.79053837051, 1, 1,15,30038.9526918526, 1,18,15
137,24306734.4461302,3610.62603180786, 1, 1,15,18053.1301590393, 1,18,15
138,713318823.35309,0.0, 1, 1,15,1474019.78213819,22,13,15
139,0.0,0.0, 1, 1,15,0.0, 1, 1,15
140,27.0259468986924,22.6390968738619,30, 7,30,39.0577222420428,22,14,15
141,25.4972866731605,24.0596006861374,30, 8,60,27.5181625542508, 7,14,15
142,25.4527550424134,22.394846418616,30, 7,30,38.6276200268932,22,13,60
143,26.2393509705529,22.5169716462389,30, 7,30,38.5357931431466,22,13,60
144,24.9614050429542,23.9385054711339,29,14,15,27.5991657799276, 7,13,60
145,25.2293458580573,24.0202086597117,30, 7,60,27.4756752499405, 7,13,60
146,52224963.3481636,0.0, 1,14, 2,49401.0109768438,15,24,60
147,2910622.46284146,0.0, 1, 1,15,23834.9787402239,20,18,60
148,0.354272584498062,0.342265336794181, 6,15,60,0.36843769233554,21,13,52
149,28506145.8885993,0.0, 1,14, 1,29580.3702231726,15,24,60
150,1749490.71100193,0.0, 1, 1,15,16268.7560869597,20,18,60
151,0.353704099546146,0.34226711762125, 6,15,60,0.362875043785958,30,24,60
224,25.4527550424134,22.394846418616,30, 7,30,38.7912096994272,22,13,60
225,60.5603932631266,21.3894623574595,20,13,60,85.9158827679257, 9, 6,60
258,24.9614050429542,23.5605780569267,12,14, 3,27.6321834901547, 7,13,60
259,61.3675162501213,35.7743052810327,16,13,60,83.777836494343, 9, 6,60
260,0.0,0.0, 1, 1,15,0.0, 1, 1,15
291,590580474.622794,0.0, 1, 1,15,2154718.64725158,22,14,45
322,1.265474938553065E-005,0.0, 1, 1,15,1.923581294249743E-007, 9,15,15
323,0.0,0.0, 1, 1,15,0.0, 1, 1,15
324,126658150.163198,0.0, 1, 1,15,294832.708938586, 8,14,45
325,2.088312804587084E-006,0.0, 1, 1,15,2.373781171627343E-008,10,15,60
408,99979423.9828909,0.0, 1, 1,15,166632.373304819, 1, 6,15
461,60086700.5219679,0.0, 1, 1,15,100144.500869946, 1, 6,15
4,304,10
8,51566344.1073059,7056.14998731617, 1,15,15,23520.4999577206, 1, 1,15
9,30990891.4450105,4240.68027435833, 1,15,15,14135.6009145278, 1, 1,15
71,34526772.2240154,0.0, 1, 1,15,42054.5337685936, 1,19,15
93,20750267.8047997,0.0, 1, 1,15,25274.382222655, 1,19,15
125,41814222.1470591,6007.79053837051, 1, 1,15,30038.9526918526, 1,19,15
137,25129957.1813824,3610.62603180786, 1, 1,15,18053.1301590393, 1,19,15
138,1011062140.2716,0.0, 1, 1,15,1833137.04685546,31,12,30
139,0.0,0.0, 1, 1,15,0.0, 1, 1,15
140,37.8940838952417,22.6054442554964, 1, 7,30,52.6413698738515,15,16,15
141,36.6038163733694,24.1772744521954, 1, 9,15,43.3881716465525,15,22,15
142,37.2518042829959,22.2410860129319, 1, 7,45,52.1047244939984,15,15,60
143,37.5729440891188,22.4282826727949, 1, 7,45,52.3607200825228,15,15,60
144,36.1134852591731,23.9785157983849, 1, 7,60,42.8717737678229,15,20,60
145,36.3586508162712,24.1084321028512, 1, 7,60,43.1016210247603,15,21,60
146,226469374.423951,10553.3758077831, 2,10,33,117929.273149802,15,24,60
147,0.0,0.0, 1, 1,15,0.0, 1, 1,15
148,0.376291541862104,0.360410009582645, 1, 8,60,0.391751318174987,31,14,22
149,131501360.294051,4514.9249174618, 1,12,50,73817.9542550329,15,24,60
150,0.0,0.0, 1, 1,15,0.0, 1, 1,15
151,0.374951546969754,0.357398985987598, 1,12,60,0.388302527844815,18,24,20
224,37.2518042829959,22.2410860129319, 1, 7,45,52.1047244939984,15,15,60
225,23.8667726382795,5.40657694238622,19,15,45,51.5027371022094,28,24,45
258,36.1134852591731,23.9785157983849, 1, 7,60,42.8735457616917,15,20,60
259,24.1976689769752,9.57537029936292,19,16,45,48.3888838565455, 1, 1,15
260,0.0,0.0, 1, 1,15,0.0, 1, 1,15
291,0.0,0.0, 1, 1,15,0.0, 1, 1,15
322,0.0,0.0, 1, 1,15,0.0, 1, 1,15
323,0.0,0.0, 1, 1,15,0.0, 1, 1,15
324,0.0,0.0, 1, 1,15,0.0, 1, 1,15
325,0.0,0.0, 1, 1,15,0.0, 1, 1,15
408,103312071.448987,0.0, 1, 1,15,166632.373304819, 1, 6,15
461,62089590.5393668,0.0, 1, 1,15,100144.500869946, 1, 6,15
4,334,11
8,49769377.9105361,7056.14998731617, 1, 9,15,23520.4999577206, 1, 1,15
9,29910931.5351406,4240.68027435833, 1, 9,15,14135.6009145278, 1, 1,15
71,33517463.4135692,0.0, 1, 1,15,42054.5337685936, 1,20,15
93,20143682.631456,0.0, 1, 1,15,25274.382222655, 1,20,15
125,40516539.3907711,6007.79053837051, 1, 1,15,30038.9526918526, 1,19,15
137,24350061.9585119,3610.62603180786, 1, 1,15,18053.1301590393, 1,19,15
138,1039764221.63015,0.0, 1, 1,15,1885035.53175238,28,12,45
139,0.0,0.0, 1, 1,15,0.0, 1, 1,15
140,32.8910574106276,19.3755175793073,11, 7,60,50.6069616067764, 6,16,15
141,31.9770705860647,23.4961466889825,11,10,15,40.9792830826586, 7,22,15
142,32.1728001118557,19.9999999999999,11, 6,45,50.2445004263801, 6,15,60
143,32.5319287612417,19.6877587896536,11, 7,60,50.4231956404344, 6,15,60
144,31.4002735812603,23.1062843710433,11, 8,60,40.5619590554439, 7,20,60
145,31.6886720836624,23.3189991085189,11, 9,60,40.7563585276555, 7,21,60
146,235150729.6638,13929.0452116763,11, 9,48,116974.523686264,22,15,60
147,0.0,0.0, 1, 1,15,0.0, 1, 1,15
148,0.380036823052093,0.368216267977599,19, 8,30,0.397104586543358,22,15,45
149,139028678.292522,7408.25315705439,11,11,33,66446.5360554676,23, 7,30
150,0.0,0.0, 1, 1,15,0.0, 1, 1,15
151,0.379119725960978,0.367330412880956,14,13,60,0.390810142448643,23, 7,30
224,32.1728001118557,19.9999999999999,11, 6,45,50.2445004263801, 6,15,60
225,22.3025510477493,6.2920682745377,27,15,45,45.1633899426832,19, 8,15
258,31.4002735812603,23.1062843710433,11, 8,60,40.5619590554439, 7,20,60
259,22.4178261923162,10.8026471043198,23,15,45,38.4223979855133,19,11,15
260,1738720.3207382,0.0, 1, 1,15,114266.280857759,11, 7,60
291,0.0,0.0, 1, 1,15,0.0, 1, 1,15
322,1738720.32073824,0.0, 1, 1,15,114266.280857761,11, 7,60
323,0.0,0.0, 1, 1,15,0.0, 1, 1,15
324,0.0,0.0, 1, 1,15,0.0, 1, 1,15
325,0.0,0.0, 1, 1,15,0.0, 1, 1,15
408,99979423.9828909,0.0, 1, 1,15,166632.373304819, 1, 7,15
461,60086700.5219679,0.0, 1, 1,15,100144.500869946, 1, 7,15
4,365,12
8,51754508.1069677,7056.14998731617, 1, 9,15,23520.4999577206, 1, 1,15
9,31103976.2523267,4240.68027435833, 1, 9,15,14135.6009145278, 1, 1,15
71,34379581.3558254,0.0, 1, 1,15,42054.5337685936, 1,20,15
93,20661807.4670204,0.0, 1, 1,15,25274.382222655, 1,20,15
125,41742128.6605987,6007.79053837051, 1, 1,15,30038.9526918526, 1,19,15
137,25086629.6690007,3610.62603180786, 1, 1,15,18053.1301590393, 1,19,15
138,1244002994.62235,0.0, 1, 1,15,2065629.87359462,31,13,30
139,0.0,0.0, 1, 1,15,0.0, 1, 1,15
140,29.9140124038455,17.9317635912771,31, 8,30,43.9613296474099,27,16,15
141,28.4322417434555,21.1344056874292,31,10,15,33.3023651488573,28,22,15
142,29.1464027937598,19.9999999999999,31, 6,15,43.4753450644861,27,15,60
143,29.5302075988026,18.9658817956385,31, 8,30,43.704719840734,27,16,15
144,27.7160762827772,20.2657794494845,31, 9,60,32.8348670225045,28,20,60
145,28.0741590131163,20.7049979829331,31, 9,60,33.0500603272087,28,21,60
146,290727787.416593,19354.1369433205, 7,10,33,153884.01045437,31,15,45
147,0.0,0.0, 1, 1,15,0.0, 1, 1,15
148,0.387674525750207,0.371113027733187,25, 3,60,0.411294161754908,31,16,30
149,167237458.986302,9963.19133933001,27,12,48,76138.5666629288,31,23,60
150,0.0,0.0, 1, 1,15,0.0, 1, 1,15
151,0.38587137465917,0.372928587287202,29,15,60,0.400950000648205,31,23,22
224,29.1464027937598,19.9999999999999,31, 6,15,43.4753450644861,27,15,60
225,15.4761780524049,3.52071226501636,20,15, 7,38.2858914770248,25, 4,30
258,27.7160762827772,20.2657794494845,31, 9,60,32.8348670225045,28,20,60
259,15.6180134638492,5.81416852232062,15,17,55,32.2372801963376,25, 4,60
260,19365118.6329557,0.0, 1, 9,22,294169.303659461,31, 6,60
291,0.0,0.0, 1, 1,15,0.0, 1, 1,15
322,19365118.6329561,0.0, 1, 9,22,294169.303659464,31, 6,60
323,0.0,0.0, 1, 1,15,0.0, 1, 1,15
324,0.0,0.0, 1, 1,15,0.0, 1, 1,15
325,0.0,0.0, 1, 1,15,0.0, 1, 1,15
408,103312071.448987,0.0, 1, 1,15,166632.373304819, 1, 7,15
461,62089590.5393668,0.0, 1, 1,15,100144.500869946, 1, 7,15
End of Data
 Number of Records Written=         384
