Program Version,EnergyPlus, Version 8.4.0-09f5359d8a, YMD=2023.08.02 14:39
1,5,Environment Title[],Latitude[deg],Longitude[deg],Time Zone[],Elevation[m]
2,6,Day of Simulation[],Month[],Day of Month[],DST Indicator[1=yes 0=no],Hour[],StartMinute[],EndMinute[],DayType
3,3,Cumulative Day of Simulation[],Month[],Day of Month[],DST Indicator[1=yes 0=no],DayType  ! When Daily Report Variables Requested
4,2,Cumulative Days of Simulation[],Month[]  ! When Monthly Report Variables Requested
5,1,Cumulative Days of Simulation[] ! When Run Period Report Variables Requested
8,9,PERIM,Zone People Total Heating Energy [J] !Monthly  [Value,Min,Day,Hour,Minute,Max,Day,Hour,Minute]
9,9,CORE,Zone People Total Heating Energy [J] !Monthly  [Value,Min,Day,Hour,Minute,Max,Day,Hour,Minute]
71,9,PERIM,Zone Lights Electric Energy [J] !Monthly  [Value,Min,Day,Hour,Minute,Max,Day,Hour,Minute]
93,9,CORE,Zone Lights Electric Energy [J] !Monthly  [Value,Min,Day,Hour,Minute,Max,Day,Hour,Minute]
125,9,PERIM,Zone Electric Equipment Electric Energy [J] !Monthly  [Value,Min,Day,Hour,Minute,Max,Day,Hour,Minute]
137,9,CORE,Zone Electric Equipment Electric Energy [J] !Monthly  [Value,Min,Day,Hour,Minute,Max,Day,Hour,Minute]
138,9,PERIM,Zone Windows Total Transmitted Solar Radiation Energy [J] !Monthly  [Value,Min,Day,Hour,Minute,Max,Day,Hour,Minute]
139,9,CORE,Zone Windows Total Transmitted Solar Radiation Energy [J] !Monthly  [Value,Min,Day,Hour,Minute,Max,Day,Hour,Minute]
140,9,PERIM,Zone Mean Radiant Temperature [C] !Monthly [Value,Min,Day,Hour,Minute,Max,Day,Hour,Minute]
141,9,CORE,Zone Mean Radiant Temperature [C] !Monthly [Value,Min,Day,Hour,Minute,Max,Day,Hour,Minute]
142,9,PERIM,Zone Mean Air Temperature [C] !Monthly [Value,Min,Day,Hour,Minute,Max,Day,Hour,Minute]
143,9,PERIM,Zone Operative Temperature [C] !Monthly [Value,Min,Day,Hour,Minute,Max,Day,Hour,Minute]
144,9,CORE,Zone Mean Air Temperature [C] !Monthly [Value,Min,Day,Hour,Minute,Max,Day,Hour,Minute]
145,9,CORE,Zone Operative Temperature [C] !Monthly [Value,Min,Day,Hour,Minute,Max,Day,Hour,Minute]
146,9,PERIM,Zone Infiltration Total Heat Loss Energy [J] !Monthly  [Value,Min,Day,Hour,Minute,Max,Day,Hour,Minute]
147,9,PERIM,Zone Infiltration Total Heat Gain Energy [J] !Monthly  [Value,Min,Day,Hour,Minute,Max,Day,Hour,Minute]
148,9,PERIM,Zone Infiltration Air Change Rate [ach] !Monthly [Value,Min,Day,Hour,Minute,Max,Day,Hour,Minute]
149,9,CORE,Zone Infiltration Total Heat Loss Energy [J] !Monthly  [Value,Min,Day,Hour,Minute,Max,Day,Hour,Minute]
150,9,CORE,Zone Infiltration Total Heat Gain Energy [J] !Monthly  [Value,Min,Day,Hour,Minute,Max,Day,Hour,Minute]
151,9,CORE,Zone Infiltration Air Change Rate [ach] !Monthly [Value,Min,Day,Hour,Minute,Max,Day,Hour,Minute]
224,9,PERIM,Zone Air Temperature [C] !Monthly [Value,Min,Day,Hour,Minute,Max,Day,Hour,Minute]
225,9,PERIM,Zone Air Relative Humidity [%] !Monthly [Value,Min,Day,Hour,Minute,Max,Day,Hour,Minute]
258,9,CORE,Zone Air Temperature [C] !Monthly [Value,Min,Day,Hour,Minute,Max,Day,Hour,Minute]
259,9,CORE,Zone Air Relative Humidity [%] !Monthly [Value,Min,Day,Hour,Minute,Max,Day,Hour,Minute]
260,9,PERIM IDEAL LOADS AIR,Zone Ideal Loads Supply Air Total Heating Energy [J] !Monthly  [Value,Min,Day,Hour,Minute,Max,Day,Hour,Minute]
291,9,PERIM IDEAL LOADS AIR,Zone Ideal Loads Supply Air Total Cooling Energy [J] !Monthly  [Value,Min,Day,Hour,Minute,Max,Day,Hour,Minute]
322,9,PERIM IDEAL LOADS AIR,Zone Ideal Loads Zone Total Heating Energy [J] !Monthly  [Value,Min,Day,Hour,Minute,Max,Day,Hour,Minute]
323,9,CORE IDEAL LOADS AIR,Zone Ideal Loads Supply Air Total Heating Energy [J] !Monthly  [Value,Min,Day,Hour,Minute,Max,Day,Hour,Minute]
324,9,CORE IDEAL LOADS AIR,Zone Ideal Loads Supply Air Total Cooling Energy [J] !Monthly  [Value,Min,Day,Hour,Minute,Max,Day,Hour,Minute]
325,9,CORE IDEAL LOADS AIR,Zone Ideal Loads Zone Total Heating Energy [J] !Monthly  [Value,Min,Day,Hour,Minute,Max,Day,Hour,Minute]
408,9,DHW PERIM,Water Use Equipment Heating Energy [J] !Monthly  [Value,Min,Day,Hour,Minute,Max,Day,Hour,Minute]
461,9,DHW CORE,Water Use Equipment Heating Energy [J] !Monthly  [Value,Min,Day,Hour,Minute,Max,Day,Hour,Minute]
End of Data Dictionary
1,ARCHSIM,  37.57, 126.97,   9.00,  87.10
4,31, 1
8,51566344.1078369,7056.14998738884, 1,16,15,23520.4999579628, 1, 1,15
9,30990891.4377844,4240.68027336949, 1,16,15,14135.6009112316, 1, 1,15
71,34526772.2243708,0.0, 1, 1,15,42054.5337690267, 1,20,15
93,20750267.7999612,0.0, 1, 1,15,25274.3822167616, 1,20,15
125,41814222.1474894,6007.79053843239, 1, 1,15,30038.9526921619, 1,20,15
137,25129957.1755226,3610.62603096594, 1, 1,15,18053.1301548297, 1,20,15
138,247446759.742616,0.0, 1, 1,15,1037196.37611268,30,10,45
139,0.0,0.0, 1, 1,15,0.0, 1, 1,15
140,18.6386384127842,17.1383496548396,23, 7,60,21.1969759115443,27,11,45
141,19.8205285169471,19.4328992647991,15, 8,60,20.2409432426959, 8,23,60
142,20.0081971811255,19.9999999999998,24, 8,15,20.6798114509156, 8,11,45
143,19.3234177969549,18.5691748274198,23, 7,60,20.8925775993406,27,11,45
144,20.0052112959484,19.9999999999999,14, 5,45,20.4133520707454, 8,20,45
145,19.9128699064478,19.7164496323996,15, 8,60,20.2910742367588, 8,20,45
146,212975976.75454,25837.9097995868, 6,15,60,109501.239647596,23, 6,60
147,0.0,0.0, 1, 1,15,0.0, 1, 1,15
148,0.378743490868058,0.36159047159542, 6,15,60,0.394139018552344,23, 6,60
149,128150436.309626,15510.0180917549, 6,15,60,65906.1407897549,23, 6,60
150,0.0,0.0, 1, 1,15,0.0, 1, 1,15
151,0.378738549729413,0.36159084971442, 6,15,60,0.394137025819806,23, 6,60
224,20.0081971811255,19.9999999999998,24, 8,15,20.6798114509156, 8,11,45
225,17.5414125154418,6.64970770248431,14,19,60,34.9657997631884, 2,22,45
258,20.0052112959484,19.9999999999999,14, 5,45,20.4133520707454, 8,20,45
259,17.6338924419339,6.20890449862617,14,19,60,35.3372293378631, 2,22,30
260,531928600.343645,0.0, 3,10,60,385503.507389465,23, 6,60
291,0.0,0.0, 1, 1,15,0.0, 1, 1,15
322,531928600.343656,0.0, 3,10,60,385503.507389476,23, 6,60
323,95163945.5928212,0.0, 1,20,15,73399.6157815514,23, 6,60
324,0.0,0.0, 1, 1,15,0.0, 1, 1,15
325,95163945.592824,0.0, 1,20,15,73399.6157815514,23, 6,60
408,103312071.450051,0.0, 1, 1,15,166632.373306534, 1, 7,15
461,62089590.5248887,0.0, 1, 1,15,100144.500846595, 1, 7,15
4,59, 2
8,46551773.5167994,7056.14998738884, 1, 9,15,23520.4999579628, 1, 1,15
9,27977181.3235098,4240.68027336949, 1, 9,15,14135.6009112316, 1, 1,15
71,31204464.0566177,0.0, 1, 1,15,42054.5337690267, 1,20,15
93,18753591.604837,0.0, 1, 1,15,25274.3822167616, 1,20,15
125,37776986.9056629,6007.79053843239, 1, 1,15,30038.9526921619, 1,19,15
137,22703616.4827136,3610.62603096594, 1, 1,15,18053.1301548297, 1,19,15
138,361116304.21703,0.0, 1, 1,15,1363463.73774862,28, 9,30
139,0.0,0.0, 1, 1,15,0.0, 1, 1,15
140,19.9265213394675,17.3910199942743, 8, 6,60,26.1670242446653,28,11,60
141,20.4121508719886,19.5437966391178, 4, 8,45,23.0395321306899,28,22,30
142,20.5956424978,19.9999999999998, 8, 4,15,25.9626058422508,28,11,60
143,20.2610819186338,18.6955099971372, 8, 6,60,26.0648150434581,28,11,60
144,20.3310548513775,19.9999999999999, 9, 5,15,23.0406993773779,28,20,45
145,20.3716028616831,19.7718983195589, 4, 8,45,23.0241591725838,28,20,60
146,173353826.381645,11858.8998804418,24,10,48,100536.809210848, 8, 6,60
147,0.0,0.0, 1, 1,15,0.0, 1, 1,15
148,0.375648599271834,0.36133919036335,23,15,60,0.390389214906135, 8, 6,60
149,103074915.789569,6010.95241235334,24,10,60,60442.103786185, 8, 6,60
150,0.0,0.0, 1, 1,15,0.0, 1, 1,15
151,0.375315514922626,0.359290335037335,23,15,60,0.390388799867905, 8, 6,60
224,20.5956424978,19.9999999999998, 8, 4,15,25.9626058422508,28,11,60
225,17.9577855896573,6.11196653014733, 9,17,60,37.9574880174418, 3,22,15
258,20.3310548513775,19.9999999999999, 9, 5,15,23.0406993773779,28,20,45
259,18.2547615878727,6.07047483077401, 9,17,60,38.3699319580448, 3,21,60
260,290539185.079265,0.0, 1,10,60,344865.342303613, 8, 6,60
291,0.0,0.0, 1, 1,15,0.0, 1, 1,15
322,290539185.079272,0.0, 1,10,60,344865.342303613, 8, 6,60
323,46426008.0406249,0.0, 2,20,15,61857.3282466539, 8, 6,60
324,0.0,0.0, 1, 1,15,0.0, 1, 1,15
325,46426008.0406263,0.0, 2,20,15,61857.3282466548, 8, 6,60
408,93314129.0516591,0.0, 1, 1,15,166632.373306534, 1, 7,15
461,56080920.474093,0.0, 1, 1,15,100144.500846595, 1, 7,15
4,90, 3
8,51378180.1081732,7056.14998738884, 1, 9,15,23520.4999579628, 1, 1,15
9,30877806.6304946,4240.68027336949, 1, 9,15,14135.6009112316, 1, 1,15
71,34673963.0925624,0.0, 1, 1,15,42054.5337690267, 1,20,15
93,20838728.1377199,0.0, 1, 1,15,25274.3822167616, 1,20,15
125,41886315.6339506,6007.79053843239, 1, 1,15,30038.9526921619, 1,19,15
137,25173284.6878942,3610.62603096594, 1, 1,15,18053.1301548297, 1,19,15
138,693530505.610235,0.0, 1, 1,15,1607464.85242299,30, 9,30
139,0.0,0.0, 1, 1,15,0.0, 1, 1,15
140,25.0102318778685,18.1162268261931, 8, 7,45,34.0642862740556,30,11,45
141,24.5340144877621,20.2749216435203, 2, 8,30,28.8138681912038,30,22,30
142,24.6324515184926,19.9999999999999, 6, 5,15,33.7904001268192,30,11,30
143,24.8213416981806,19.0581134130965, 8, 7,45,33.9040640121995,30,11,30
144,24.1307161844806,20., 8, 7,45,28.7270925360494,30,19,60
145,24.3323653361214,20.1374608217602, 2, 8,30,28.7122973999701,30,21,15
146,182542276.175102,11985.9172448027,19, 8, 3,93385.0080791519, 7,10,60
147,0.0,0.0, 1, 1,15,0.0, 1, 1,15
148,0.373417983711465,0.364864677152614,11,15,60,0.388204707106828, 7,10,45
149,107563293.342588,7693.5466735921,11, 9, 3,51452.0738099275,31,24,60
150,0.0,0.0, 1, 1,15,0.0, 1, 1,15
151,0.372808821311612,0.360323750189457,19,15,60,0.383632662851303, 8, 3,60
224,24.6324515184926,19.9999999999999, 6, 5,15,33.7904001268192,30,11,30
225,19.9699879589854,7.25927840871568, 7,11,60,36.7409730380895,27, 6,45
258,24.1307161844806,20., 8, 7,45,28.7270925360494,30,19,60
259,20.1974717498962,7.79655371964343, 7,17,60,33.436982521662, 2, 3,45
260,42962541.3227705,0.0, 1, 1,15,237179.572103929, 8, 6,60
291,0.0,0.0, 1, 1,15,0.0, 1, 1,15
322,42962541.3227714,0.0, 1, 1,15,237179.572103933, 8, 6,60
323,275902.163345543,0.0, 1, 1,15,12721.81148972, 3, 6,60
324,0.0,0.0, 1, 1,15,0.0, 1, 1,15
325,275902.163345551,0.0, 1, 1,15,12721.81148972, 3, 6,60
408,103312071.450051,0.0, 1, 1,15,166632.373306534, 1, 7,15
461,62089590.5248887,0.0, 1, 1,15,100144.500846595, 1, 7,15
4,120, 4
8,50145705.910376,7056.14998738884, 1,15,15,23520.4999579628, 1, 1,15
9,30137101.142746,4240.68027336949, 1,15,15,14135.6009112316, 1, 1,15
71,33223081.677531,0.0, 1, 1,15,42054.5337690267, 1,19,15
93,19966761.9512416,0.0, 1, 1,15,25274.3822167616, 1,19,15
125,40372352.4182657,6007.79053843239, 1, 1,15,30038.9526921619, 1,19,15
137,24263406.9280909,3610.62603096594, 1, 1,15,18053.1301548297, 1,19,15
138,690832276.760245,0.0, 1, 1,15,1652546.34308391,29, 9,15
139,0.0,0.0, 1, 1,15,0.0, 1, 1,15
140,29.7599878374528,19.5143678764979,26, 6,60,43.7915603399757,11,11,45
141,29.1866273683405,22.6528015863178,27, 7,45,37.771036735527,11,21,45
142,29.2627811111631,20.,26, 6,30,43.5222276692586,11,11,30
143,29.511384474308,19.757183938249,26, 6,60,43.6424566423211,11,11,30
144,28.8401225709853,22.3666823623169,27, 8,30,37.6503533997579,11,19,60
145,29.0133749696629,22.530502102207,27, 8,30,37.6706947459637,11,19,60
146,168511357.787107,11063.7743122265,23, 7,33,95532.0377677872,11,22,60
147,0.0,0.0, 1, 1,15,0.0, 1, 1,15
148,0.370697082261505,0.364290408162845,14,18,60,0.383642233426697, 1,10,37
149,99998393.2363823,7098.07526621059,23, 8, 3,58831.1498970126,11,22,60
150,0.0,0.0, 1, 1,15,0.0, 1, 1,15
151,0.370208586032676,0.358497049135409,19,12,60,0.378926418020247, 1, 3,22
224,29.2627811111631,20.,26, 6,30,43.5222276692586,11,11,30
225,26.4847056176619,9.26791840397636,11,16,60,53.5735042051915,20,23,45
258,28.8401225709853,22.3586436855855,27, 8,20,37.6503533997579,11,19,60
259,26.3358615803235,11.2920484883451,11,16,60,44.8997990340654,25, 2,45
260,1457598.09673222,0.0, 1, 1,15,81064.6295500278, 1, 7,15
291,0.0,0.0, 1, 1,15,0.0, 1, 1,15
322,1457598.09673225,0.0, 1, 1,15,81064.6295500278, 1, 7,15
323,0.0,0.0, 1, 1,15,0.0, 1, 1,15
324,0.0,0.0, 1, 1,15,0.0, 1, 1,15
325,0.0,0.0, 1, 1,15,0.0, 1, 1,15
408,99979423.9839205,0.0, 1, 1,15,166632.373306534, 1, 6,15
461,60086700.5079568,0.0, 1, 1,15,100144.500846595, 1, 6,15
4,151, 5
8,51378180.1081732,7056.14998738884, 1, 8,15,23520.4999579628, 1, 1,15
9,30877806.6304946,4240.68027336949, 1, 8,15,14135.6009112316, 1, 1,15
71,34673963.0925624,0.0, 1, 1,15,42054.5337690267, 1,19,15
93,20838728.1377199,0.0, 1, 1,15,25274.3822167616, 1,19,15
125,41886315.6339506,6007.79053843239, 1, 1,15,30038.9526921619, 1,18,15
137,25173284.6878942,3610.62603096594, 1, 1,15,18053.1301548297, 1,18,15
138,615997387.361977,0.0, 1, 1,15,1584600.96541698, 6, 9,15
139,0.0,0.0, 1, 1,15,0.0, 1, 1,15
140,32.5488939370557,22.7753462808952,30, 6,60,41.7531184890721, 8,11,45
141,32.234475272102,25.2010930304823,30, 8,30,37.4105785120403,26,22,60
142,32.118444294045,22.561473501694,30, 6,60,41.5325139878826, 8,11,30
143,32.3336691155503,22.6684098912946,30, 6,60,41.6251606253794, 8,11,45
144,31.9575167510123,25.1387286748044,30, 9,15,37.3235841996688,26,21,30
145,32.0959960115572,25.1753489747636,30, 8,30,37.3537452662272,26,21,60
146,156227595.211218,6588.7852819157,30, 8,33,89674.460095466, 8, 1,60
147,0.0,0.0, 1, 1,15,0.0, 1, 1,15
148,0.367120115512927,0.357454761584747,25,15,60,0.380386595696456, 6, 9,55
149,94475334.8379137,701.850464849833,21,19,60,57412.329399263, 8, 1,60
150,0.0,0.0, 1, 1,15,0.0, 1, 1,15
151,0.366950015883589,0.353704132871883,25,15,60,0.378086355902858, 6, 6,60
224,32.118444294045,22.561473501694,30, 6,60,41.5325139878826, 8,11,30
225,32.7880078072303,11.8049121192588, 8,15,45,63.4342699705801,29, 4,30
258,31.9575167510123,25.1245184032954,30, 9,15,37.3235841996688,26,21,30
259,32.2463496015727,14.4198522972335, 8,16,60,56.3994181315205,28,15,30
260,0.0,0.0, 1, 1,15,0.0, 1, 1,15
291,0.0,0.0, 1, 1,15,0.0, 1, 1,15
322,0.0,0.0, 1, 1,15,0.0, 1, 1,15
323,0.0,0.0, 1, 1,15,0.0, 1, 1,15
324,0.0,0.0, 1, 1,15,0.0, 1, 1,15
325,0.0,0.0, 1, 1,15,0.0, 1, 1,15
408,103312071.450051,0.0, 1, 1,15,166632.373306534, 1, 6,15
461,62089590.5248887,0.0, 1, 1,15,100144.500846595, 1, 6,15
4,181, 6
8,49769377.9110486,7056.14998738884, 1, 8,15,23520.4999579628, 1, 1,15
9,29910931.5281663,4240.68027336949, 1, 8,15,14135.6009112316, 1, 1,15
71,33517463.4139142,0.0, 1, 1,15,42054.5337690267, 1,19,15
93,20143682.6267589,0.0, 1, 1,15,25274.3822167616, 1,19,15
125,40516539.391188,6007.79053843239, 1, 1,15,30038.9526921619, 1,18,15
137,24350061.952834,3610.62603096594, 1, 1,15,18053.1301548297, 1,18,15
138,566304901.817238,0.0, 1, 1,15,1667028.13274054, 1, 8,60
139,0.0,0.0, 1, 1,15,0.0, 1, 1,15
140,36.5906212121071,28.5950621310155,15, 6,60,46.5869250370817,10,11,60
141,36.1650977330873,30.4715170183296,15, 8,45,42.5457885711976,10,21,60
142,36.1903139429611,28.3039025357373, 1, 5,60,46.3120295314665,10,11,45
143,36.3904675775341,28.4869759369407,15, 6,60,46.4434379947738,10,11,60
144,35.9168428729665,30.4128423239551,15, 5,60,42.5071722599937,10,19,45
145,36.0409703030269,30.4589168029954,15, 8,30,42.5042265780417,10,20,60
146,146992037.69766,7637.43584732915,15, 8,48,79955.8236802453,11,10,60
147,0.0,0.0, 1, 1,15,0.0, 1, 1,15
148,0.365434095228052,0.356711856009741,14,15,60,0.374684818773974, 3,10,52
149,88147742.9630401,4570.32552344888,15, 9,15,49647.1879621114,12, 6,60
150,0.0,0.0, 1, 1,15,0.0, 1, 1,15
151,0.36513020786447,0.354462857446933,15,15,60,0.37671173333514,12, 3,22
224,36.1903139429611,28.3039025357373, 1, 5,60,46.3120295314665,10,11,45
225,36.5791228535425,12.4005767540191, 1,15,15,67.0408384302755,14, 5,60
258,35.9168428729665,30.4087360164091,15, 9,15,42.5071722599937,10,19,45
259,36.3560959536475,15.2131914414991, 8,16,60,60.1861809520093,14, 5,60
260,0.0,0.0, 1, 1,15,0.0, 1, 1,15
291,0.0,0.0, 1, 1,15,0.0, 1, 1,15
322,0.0,0.0, 1, 1,15,0.0, 1, 1,15
323,0.0,0.0, 1, 1,15,0.0, 1, 1,15
324,0.0,0.0, 1, 1,15,0.0, 1, 1,15
325,0.0,0.0, 1, 1,15,0.0, 1, 1,15
408,99979423.9839205,0.0, 1, 1,15,166632.373306534, 1, 6,15
461,60086700.5079568,0.0, 1, 1,15,100144.500846595, 1, 6,15
4,212, 7
8,51754508.1075006,7056.14998738884, 1,15,15,23520.4999579628, 1, 1,15
9,31103976.2450743,4240.68027336949, 1,15,15,14135.6009112316, 1, 1,15
71,34379581.3561792,0.0, 1, 1,15,42054.5337690267, 1,19,15
93,20661807.4622026,0.0, 1, 1,15,25274.3822167616, 1,19,15
125,41742128.6610282,6007.79053843239, 1, 1,15,30038.9526921619, 1,19,15
137,25086629.6631511,3610.62603096594, 1, 1,15,18053.1301548297, 1,19,15
138,449955948.048897,0.0, 1, 1,15,1443100.41545994,12, 9,30
139,0.0,0.0, 1, 1,15,0.0, 1, 1,15
140,27.4287137899326,23.9960041016527,12, 6,30,38.4060432390744, 1,12,45
141,25.9749950365073,24.5341116615839,17,22,15,34.4492740616182, 1,14,15
142,26.3668346353899,23.9390450450755, 3,14,15,38.1933443140652, 1,12,30
143,26.8977742126612,24.0367952854635,12, 4,30,38.2973537690326, 1,12,45
144,25.4810321344245,23.9632608663007, 3,14,15,34.4402282643285, 1,13,60
145,25.7280135854659,24.2702834558122,17,21,60,34.4135347461605, 1,13,60
146,30957646.0901963,0.0, 1,14, 2,48020.1450855344, 1,10,60
147,22944838.9648823,0.0, 1, 1,15,52795.7924325234,30,14,30
148,0.351219714395452,0.341441744698146,20,15,60,0.364529132539435, 1,10,37
149,14223013.1449653,0.0, 1,14, 2,31471.4840716166, 1, 1,15
150,13688181.1819725,0.0, 1, 1,15,30520.2069262145,30,14,45
151,0.350186671830555,0.341436638758431,20,15,60,0.36367759796605, 1, 1,15
224,26.3668346353899,23.4367773423278, 2,14, 5,38.1933443140652, 1,12,30
225,70.5058739211983,35.2701913120541,12,11,60,91.1266148076316, 2,14, 3
258,25.4810321344245,23.5490858339783,26,14, 3,34.4402282643285, 1,13,60
259,73.6302591307776,48.654747562771, 1,13,60,90.4156574472684, 2,14, 3
260,0.0,0.0, 1, 1,15,0.0, 1, 1,15
291,439537441.098832,0.0, 1, 1,15,1857091.7735272, 1,14,45
322,4.870518921507028E-006,0.0, 1, 1,15,1.123453330365010E-007, 6,14,45
323,0.0,0.0, 1, 1,15,0.0, 1, 1,15
324,162863714.374728,0.0, 1, 1,15,947906.702132673, 1,14,45
325,1.316197710821143E-006,0.0, 1, 1,15,3.918785296264105E-008,21,15,15
408,103312071.450051,0.0, 1, 1,15,166632.373306534, 1, 6,15
461,62089590.5248887,0.0, 1, 1,15,100144.500846595, 1, 6,15
4,243, 8
8,51378180.1081732,7056.14998738884, 1, 8,15,23520.4999579628, 1, 1,15
9,30877806.6304946,4240.68027336949, 1, 8,15,14135.6009112316, 1, 1,15
71,34673963.0925624,0.0, 1, 1,15,42054.5337690267, 1,19,15
93,20838728.1377199,0.0, 1, 1,15,25274.3822167616, 1,19,15
125,41886315.6339506,6007.79053843239, 1, 1,15,30038.9526921619, 1,18,15
137,25173284.6878942,3610.62603096594, 1, 1,15,18053.1301548297, 1,18,15
138,589815970.612727,0.0, 1, 1,15,1468856.32749899,17, 9,30
139,0.0,0.0, 1, 1,15,0.0, 1, 1,15
140,28.2243212182613,23.2518431332801,26, 7,15,38.3836237809044, 7,12,15
141,26.117955999798,24.4817709515638,26, 7,45,29.7619833470002, 7,14,15
142,26.9124078154303,23.0572953358626,26, 7,15,38.4637288835659, 7,11,60
143,27.5683645168458,23.1545692345714,26, 7,15,38.4112183879997, 7,12,15
144,25.5214361753353,23.9423229240234,25,14,15,29.9373398364418, 7,13,60
145,25.8196960875667,24.387153022254,25,21,60,29.7826053593501, 7,13,60
146,36107367.6746797,0.0, 1,14, 1,58386.3278386102,27,11,60
147,24632445.0171714,0.0, 1, 1,15,52354.1617121611, 7,16,15
148,0.351304113051691,0.339025222913595, 7,15,60,0.364266331469516,28,10,52
149,14547056.2753687,0.0, 1,13,45,20405.7183883009,28, 6,60
150,14779963.8828646,0.0, 1, 1,15,31219.6219382363, 7,15,60
151,0.349685830809843,0.339017999039696, 7,15,60,0.358285375025775,29, 7, 7
224,26.9124078154303,23.0572953358626,26, 7,15,38.4637288835659, 7,11,60
225,67.6208684590033,33.1440759316455,30,13,60,92.616825396752, 2, 5,60
258,25.5214361753353,23.5527446967289,21,14, 3,29.9373398364418, 7,13,60
259,72.17229994072,48.327183037201,30,13,60,93.44365752787, 2, 5,60
260,0.0,0.0, 1, 1,15,0.0, 1, 1,15
291,539992837.048269,0.0, 1, 1,15,1791233.94143328, 7,14,45
322,6.088696693495876E-006,0.0, 1, 1,15,2.236674845335074E-007,12,14,45
323,0.0,0.0, 1, 1,15,0.0, 1, 1,15
324,188065995.958801,0.0, 1, 1,15,483836.22395506, 7,14,45
325,1.607565813799283E-006,0.0, 1, 1,15,4.476419235288631E-008,22,14,45
408,103312071.450051,0.0, 1, 1,15,166632.373306534, 1, 6,15
461,62089590.5248887,0.0, 1, 1,15,100144.500846595, 1, 6,15
4,273, 9
8,49957541.9107123,7056.14998738884, 1, 8,15,23520.4999579628, 1, 1,15
9,30024016.3354562,4240.68027336949, 1, 8,15,14135.6009112316, 1, 1,15
71,33370272.5457226,0.0, 1, 1,15,42054.5337690267, 1,19,15
93,20055222.2890003,0.0, 1, 1,15,25274.3822167616, 1,19,15
125,40444445.9047268,6007.79053843239, 1, 1,15,30038.9526921619, 1,18,15
137,24306734.4404624,3610.62603096594, 1, 1,15,18053.1301548297, 1,18,15
138,540045344.91077,0.0, 1, 1,15,1573797.48624612,16, 9,30
139,0.0,0.0, 1, 1,15,0.0, 1, 1,15
140,27.0520998039483,22.4313540525119,30, 7,30,36.7998542038729,10,11,45
141,25.5445286796637,23.9173834047093,30, 7,60,28.7322163366562, 7,14,15
142,25.9480253502807,22.190969996412,30, 7,30,36.8957519787327,10,11,45
143,26.5000625771144,22.3111620244619,30, 7,30,36.8478030913028,10,11,45
144,25.0127549883151,23.787850379447,30, 7,60,28.8552389475706, 7,13,60
145,25.2786418339894,23.8526168920782,30, 7,60,28.734024676668, 7,13,60
146,58163860.6252611,0.0, 1,14, 2,58306.2071998413,16,11,15
147,2677329.65584309,0.0, 1, 1,15,24122.8356313193,20,18,60
148,0.355069032152983,0.342473292395626, 6,15,60,0.368836325296057,16,10,37
149,29619269.0514239,0.0, 1,14, 1,29715.0151521338,15,24,60
150,1639709.09877344,0.0, 1, 1,15,16006.2198705817,20,18,60
151,0.353974459748954,0.342476635800104, 6,15,60,0.362861374850269,30,24,60
224,25.9480253502807,22.190969996412,30, 7,30,36.8957519787327,10,11,45
225,59.4237642613581,23.0132199920222,16,11,45,86.583078058287, 9, 6,60
258,25.0127549883151,23.5572575487373,26,14, 3,28.8552389475706, 7,13,60
259,61.2851306182393,32.8266996805677,16,13,60,84.444404829627, 9, 6,60
260,0.0,0.0, 1, 1,15,0.0, 1, 1,15
291,370359449.366002,0.0, 1, 1,15,1514297.87021423, 7,14,45
322,7.613627126559194E-006,0.0, 1, 1,15,1.156195139628835E-007, 9,14,45
323,0.0,0.0, 1, 1,15,0.0, 1, 1,15
324,125059003.785613,0.0, 1, 1,15,380766.24295353, 7,14,45
325,2.650886078054231E-006,0.0, 1, 1,15,3.325340003357269E-008, 6,14,60
408,99979423.9839205,0.0, 1, 1,15,166632.373306534, 1, 6,15
461,60086700.5079568,0.0, 1, 1,15,100144.500846595, 1, 6,15
4,304,10
8,51566344.1078369,7056.14998738884, 1,15,15,23520.4999579628, 1, 1,15
9,30990891.4377844,4240.68027336949, 1,15,15,14135.6009112316, 1, 1,15
71,34526772.2243708,0.0, 1, 1,15,42054.5337690267, 1,19,15
93,20750267.7999612,0.0, 1, 1,15,25274.3822167616, 1,19,15
125,41814222.1474894,6007.79053843239, 1, 1,15,30038.9526921619, 1,19,15
137,25129957.1755226,3610.62603096594, 1, 1,15,18053.1301548297, 1,19,15
138,437321629.005435,0.0, 1, 1,15,1388191.66066187,12, 9,30
139,0.0,0.0, 1, 1,15,0.0, 1, 1,15
140,27.4032301054993,19.2666340792911,24, 7,30,38.8993044243299, 5,11,30
141,27.4537411465358,22.0055405846568,31, 8,30,34.3558055899503, 5,21,45
142,27.0958192414119,19.9999999999999,31, 6,45,38.7854700927231, 5,11,15
143,27.2495246734557,19.6333170396455,24, 7,30,38.8148399425147, 5,11,15
144,27.27285429037,21.6792650781501,31,10,30,34.3541269717337, 5,19,60
145,27.3632977184529,21.8751640481695,31,10,30,34.3310176779504, 5,19,60
146,127103915.232747,4212.67486575276,14,18,60,70260.7860916316,15,24,60
147,0.0,0.0, 1, 1,15,0.0, 1, 1,15
148,0.364247252186041,0.356486710921979,22,15,60,0.373938683927679,24, 9,30
149,78278189.0611355,1477.92875352531,14,18,60,46030.6285002156,15,24,60
150,0.0,0.0, 1, 1,15,0.0, 1, 1,15
151,0.364476777976994,0.354248779853972,27,15,60,0.372672525218761,24, 6,60
224,27.0958192414119,19.9999999999999,31, 6,45,38.7854700927231, 5,11,15
225,35.8671795197341,14.8941941166652,19,15,15,66.681397044838,28,24,30
258,27.27285429037,21.6651089433432,31,10,15,34.3541269717337, 5,19,60
259,35.286176374267,16.5023947093562,19,15,45,60.2112396947441,28,24,30
260,2329821.06942343,0.0, 1, 1,15,91926.8522942029,24, 7,30
291,0.0,0.0, 1, 1,15,0.0, 1, 1,15
322,2329821.06942349,0.0, 1, 1,15,91926.852294207,24, 7,30
323,0.0,0.0, 1, 1,15,0.0, 1, 1,15
324,0.0,0.0, 1, 1,15,0.0, 1, 1,15
325,0.0,0.0, 1, 1,15,0.0, 1, 1,15
408,103312071.450051,0.0, 1, 1,15,166632.373306534, 1, 6,15
461,62089590.5248887,0.0, 1, 1,15,100144.500846595, 1, 6,15
4,334,11
8,49769377.9110486,7056.14998738884, 1, 9,15,23520.4999579628, 1, 1,15
9,29910931.5281663,4240.68027336949, 1, 9,15,14135.6009112316, 1, 1,15
71,33517463.4139142,0.0, 1, 1,15,42054.5337690267, 1,20,15
93,20143682.6267589,0.0, 1, 1,15,25274.3822167616, 1,20,15
125,40516539.391188,6007.79053843239, 1, 1,15,30038.9526921619, 1,19,15
137,24350061.952834,3610.62603096594, 1, 1,15,18053.1301548297, 1,19,15
138,235216532.55714,0.0, 1, 1,15,965142.133287183, 6, 8,60
139,0.0,0.0, 1, 1,15,0.0, 1, 1,15
140,19.9906421857807,17.4972941611056,27, 7,60,24.6502604262497, 7,15,30
141,20.6965240891541,19.5906782043436,27, 7,60,23.8030791284293, 7,23,60
142,20.54720244312,19.9999999999998,25, 6,45,24.5827759154938, 7,15,15
143,20.2689223144504,18.7486470805529,27, 7,60,24.6156867251727, 7,15,30
144,20.685026784244,19.9999999999999,28, 4,15,24.108713656206, 7,22,60
145,20.690775436699,19.7953391021718,27, 7,60,23.9479998597544, 7,23,60
146,121567845.242738,8041.92701638736, 6,10,18,81991.2933247784,30,24,60
147,0.0,0.0, 1, 1,15,0.0, 1, 1,15
148,0.365932967719118,0.353594934110374, 5,15,60,0.380946783910755,23, 8,60
149,73936943.5437,4595.84306157613, 6,10,30,48153.5811840922,23, 7,60
150,0.0,0.0, 1, 1,15,0.0, 1, 1,15
151,0.366105131692044,0.352060644392639, 6,15,60,0.380955068841944,23, 8,60
224,20.54720244312,19.9999999999998,25, 6,45,24.5827759154938, 7,15,15
225,36.1895114790843,15.5771506126943,23,13,30,60.7073350751375,19, 9,60
258,20.685026784244,19.9999999999999,28, 4,15,24.108713656206, 7,22,60
259,35.8212967611928,15.3860604177322,23,13,15,61.0786075537146,19,12,30
260,203413011.87001,0.0, 1, 1,15,296844.537631815,27, 6,60
291,0.0,0.0, 1, 1,15,0.0, 1, 1,15
322,203413011.870016,0.0, 1, 1,15,296844.537631824,27, 6,60
323,21257649.3408398,0.0, 1, 1,15,44222.9827760836,23, 6,60
324,0.0,0.0, 1, 1,15,0.0, 1, 1,15
325,21257649.5627101,0.0, 1, 1,15,44222.9827760836,23, 6,60
408,99979423.9839205,0.0, 1, 1,15,166632.373306534, 1, 7,15
461,60086700.5079568,0.0, 1, 1,15,100144.500846595, 1, 7,15
4,365,12
8,51754508.1075006,7056.14998738884, 1, 9,15,23520.4999579628, 1, 1,15
9,31103976.2450743,4240.68027336949, 1, 9,15,14135.6009112316, 1, 1,15
71,34379581.3561792,0.0, 1, 1,15,42054.5337690267, 1,20,15
93,20661807.4622026,0.0, 1, 1,15,25274.3822167616, 1,20,15
125,41742128.6610282,6007.79053843239, 1, 1,15,30038.9526921619, 1,19,15
137,25086629.6631511,3610.62603096594, 1, 1,15,18053.1301548297, 1,19,15
138,216025564.004588,0.0, 1, 1,15,919620.050565194,31,10,15
139,0.0,0.0, 1, 1,15,0.0, 1, 1,15
140,18.6671998665506,17.1372341029106,18, 6,60,20.9213299531971,13,11,30
141,19.8197668136409,19.4371869661634,17, 8,60,20.1939938411999,28,23,60
142,20.0032947989873,19.9999999999998,16, 4,60,20.5180831301333,13,11,15
143,19.335247332769,18.5686170514553,18, 6,60,20.7070701848719,13,11,30
144,20.0069691315865,19.9999999999999,16, 4,60,20.3853608238518,28,20,60
145,19.9133679726137,19.7185934830817,17, 8,60,20.2608297374516,28,22,60
146,196524663.182032,29074.0123208773,11,15,60,111425.490015557,31, 9,60
147,0.0,0.0, 1, 1,15,0.0, 1, 1,15
148,0.376294615950089,0.36151447581033,29,15,60,0.394456797109808,31,24,60
149,118255214.04261,17579.7792955037,11,15,60,66728.0599877147,31, 9,60
150,0.0,0.0, 1, 1,15,0.0, 1, 1,15
151,0.376298303263824,0.361515600855914,29,15,60,0.394453664275358,31,24,60
224,20.0032947989873,19.9999999999998,16, 4,60,20.5180831301333,13,11,15
225,20.2105843268056,7.76389841784169,16,19,60,40.2398762271353,25, 4,30
258,20.0069691315865,19.9999999999999,16, 4,60,20.3853608238518,28,20,60
259,20.2693942111192,7.39855286264424,16,19,60,40.8441295938033,25, 4,15
260,496264619.219844,0.0, 2,10,45,381343.653912012,18, 6,60
291,0.0,0.0, 1, 1,15,0.0, 1, 1,15
322,496264619.219856,0.0, 2,10,45,381343.653912025,18, 6,60
323,85080966.5327017,0.0, 6,20,15,71236.908831623,17, 8,60
324,0.0,0.0, 1, 1,15,0.0, 1, 1,15
325,85080966.5327044,0.0, 6,20,15,71236.908831623,17, 8,60
408,103312071.450051,0.0, 1, 1,15,166632.373306534, 1, 7,15
461,62089590.5248887,0.0, 1, 1,15,100144.500846595, 1, 7,15
End of Data
 Number of Records Written=         384
