Program Version,EnergyPlus, Version 8.4.0-09f5359d8a, YMD=2023.08.02 14:39
1,5,Environment Title[],Latitude[deg],Longitude[deg],Time Zone[],Elevation[m]
2,6,Day of Simulation[],Month[],Day of Month[],DST Indicator[1=yes 0=no],Hour[],StartMinute[],EndMinute[],DayType
3,3,Cumulative Day of Simulation[],Month[],Day of Month[],DST Indicator[1=yes 0=no],DayType  ! When Daily Report Variables Requested
4,2,Cumulative Days of Simulation[],Month[]  ! When Monthly Report Variables Requested
5,1,Cumulative Days of Simulation[] ! When Run Period Report Variables Requested
8,9,PERIM,Zone People Total Heating Energy [J] !Monthly  [Value,Min,Day,Hour,Minute,Max,Day,Hour,Minute]
9,9,CORE,Zone People Total Heating Energy [J] !Monthly  [Value,Min,Day,Hour,Minute,Max,Day,Hour,Minute]
71,9,PERIM,Zone Lights Electric Energy [J] !Monthly  [Value,Min,Day,Hour,Minute,Max,Day,Hour,Minute]
93,9,CORE,Zone Lights Electric Energy [J] !Monthly  [Value,Min,Day,Hour,Minute,Max,Day,Hour,Minute]
125,9,PERIM,Zone Electric Equipment Electric Energy [J] !Monthly  [Value,Min,Day,Hour,Minute,Max,Day,Hour,Minute]
137,9,CORE,Zone Electric Equipment Electric Energy [J] !Monthly  [Value,Min,Day,Hour,Minute,Max,Day,Hour,Minute]
138,9,PERIM,Zone Windows Total Transmitted Solar Radiation Energy [J] !Monthly  [Value,Min,Day,Hour,Minute,Max,Day,Hour,Minute]
139,9,CORE,Zone Windows Total Transmitted Solar Radiation Energy [J] !Monthly  [Value,Min,Day,Hour,Minute,Max,Day,Hour,Minute]
140,9,PERIM,Zone Mean Radiant Temperature [C] !Monthly [Value,Min,Day,Hour,Minute,Max,Day,Hour,Minute]
141,9,CORE,Zone Mean Radiant Temperature [C] !Monthly [Value,Min,Day,Hour,Minute,Max,Day,Hour,Minute]
142,9,PERIM,Zone Mean Air Temperature [C] !Monthly [Value,Min,Day,Hour,Minute,Max,Day,Hour,Minute]
143,9,PERIM,Zone Operative Temperature [C] !Monthly [Value,Min,Day,Hour,Minute,Max,Day,Hour,Minute]
144,9,CORE,Zone Mean Air Temperature [C] !Monthly [Value,Min,Day,Hour,Minute,Max,Day,Hour,Minute]
145,9,CORE,Zone Operative Temperature [C] !Monthly [Value,Min,Day,Hour,Minute,Max,Day,Hour,Minute]
146,9,PERIM,Zone Infiltration Total Heat Loss Energy [J] !Monthly  [Value,Min,Day,Hour,Minute,Max,Day,Hour,Minute]
147,9,PERIM,Zone Infiltration Total Heat Gain Energy [J] !Monthly  [Value,Min,Day,Hour,Minute,Max,Day,Hour,Minute]
148,9,PERIM,Zone Infiltration Air Change Rate [ach] !Monthly [Value,Min,Day,Hour,Minute,Max,Day,Hour,Minute]
149,9,CORE,Zone Infiltration Total Heat Loss Energy [J] !Monthly  [Value,Min,Day,Hour,Minute,Max,Day,Hour,Minute]
150,9,CORE,Zone Infiltration Total Heat Gain Energy [J] !Monthly  [Value,Min,Day,Hour,Minute,Max,Day,Hour,Minute]
151,9,CORE,Zone Infiltration Air Change Rate [ach] !Monthly [Value,Min,Day,Hour,Minute,Max,Day,Hour,Minute]
224,9,PERIM,Zone Air Temperature [C] !Monthly [Value,Min,Day,Hour,Minute,Max,Day,Hour,Minute]
225,9,PERIM,Zone Air Relative Humidity [%] !Monthly [Value,Min,Day,Hour,Minute,Max,Day,Hour,Minute]
258,9,CORE,Zone Air Temperature [C] !Monthly [Value,Min,Day,Hour,Minute,Max,Day,Hour,Minute]
259,9,CORE,Zone Air Relative Humidity [%] !Monthly [Value,Min,Day,Hour,Minute,Max,Day,Hour,Minute]
260,9,PERIM IDEAL LOADS AIR,Zone Ideal Loads Supply Air Total Heating Energy [J] !Monthly  [Value,Min,Day,Hour,Minute,Max,Day,Hour,Minute]
291,9,PERIM IDEAL LOADS AIR,Zone Ideal Loads Supply Air Total Cooling Energy [J] !Monthly  [Value,Min,Day,Hour,Minute,Max,Day,Hour,Minute]
322,9,PERIM IDEAL LOADS AIR,Zone Ideal Loads Zone Total Heating Energy [J] !Monthly  [Value,Min,Day,Hour,Minute,Max,Day,Hour,Minute]
323,9,CORE IDEAL LOADS AIR,Zone Ideal Loads Supply Air Total Heating Energy [J] !Monthly  [Value,Min,Day,Hour,Minute,Max,Day,Hour,Minute]
324,9,CORE IDEAL LOADS AIR,Zone Ideal Loads Supply Air Total Cooling Energy [J] !Monthly  [Value,Min,Day,Hour,Minute,Max,Day,Hour,Minute]
325,9,CORE IDEAL LOADS AIR,Zone Ideal Loads Zone Total Heating Energy [J] !Monthly  [Value,Min,Day,Hour,Minute,Max,Day,Hour,Minute]
408,9,DHW PERIM,Water Use Equipment Heating Energy [J] !Monthly  [Value,Min,Day,Hour,Minute,Max,Day,Hour,Minute]
461,9,DHW CORE,Water Use Equipment Heating Energy [J] !Monthly  [Value,Min,Day,Hour,Minute,Max,Day,Hour,Minute]
End of Data Dictionary
1,ARCHSIM,  37.57, 126.97,   9.00,  87.10
4,31, 1
8,51566344.1203769,7056.14998910472, 1,16,15,23520.4999636824, 1, 1,15
9,30990891.4342542,4240.68027288646, 1,16,15,14135.6009096215, 1, 1,15
71,34526772.2327669,0.0, 1, 1,15,42054.5337792533, 1,20,15
93,20750267.7975977,0.0, 1, 1,15,25274.3822138827, 1,20,15
125,41814222.1576579,6007.79053989333, 1, 1,15,30038.9526994667, 1,20,15
137,25129957.1726606,3610.62603055467, 1, 1,15,18053.1301527734, 1,20,15
138,298893167.912343,0.0, 1, 1,15,757547.176454142,30,15,30
139,0.0,0.0, 1, 1,15,0.0, 1, 1,15
140,18.7974653818766,17.1316234545371,14, 8,45,22.3013490357626, 6,17,45
141,19.8827401464987,19.4563265495472,22, 8,60,20.6641823036214, 6,23,15
142,20.0569724622106,19.9999999999998,23, 5,45,22.0968046365312, 6,16,30
143,19.4272189220436,18.5658117272686,14, 8,45,22.1828510288838, 6,16,45
144,20.0163176968656,19.9999999999999,14, 6,60,20.7167045481417, 6,20,60
145,19.9495289216822,19.7281632747736,22, 8,60,20.649742462126, 6,20,60
146,214176030.731999,15121.6315484788, 6,15, 7,109600.561397806,23, 6,60
147,0.0,0.0, 1, 1,15,0.0, 1, 1,15
148,0.37884474431139,0.362598423888629, 8,12,60,0.3941836714496,23, 6,60
149,128420128.581887,7736.38110195968, 6,15,52,65971.7426065297,23, 6,60
150,0.0,0.0, 1, 1,15,0.0, 1, 1,15
151,0.378794005548118,0.361629363333335, 6,15,60,0.394181546176252,23, 6,60
224,20.0569724622106,19.9999999999998,23, 5,45,22.0968046365312, 6,16,30
225,17.6453415550474,6.35466456171431,14,19,60,35.2509198876922, 2,22,30
258,20.0163176968656,19.9999999999999,14, 6,60,20.7167045481417, 6,20,60
259,17.6375976726811,6.1979766821385,14,19,60,34.8046285439955, 2,22,45
260,504963311.302681,0.0, 2,15,15,384067.132349796,23, 6,60
291,0.0,0.0, 1, 1,15,0.0, 1, 1,15
322,504963311.352354,0.0, 2,15,15,384067.132349803,23, 6,60
323,90338108.658862,0.0, 1,20,15,70905.2854358522,23, 6,60
324,0.0,0.0, 1, 1,15,0.0, 1, 1,15
325,90338110.4819037,0.0, 1,20,15,70905.2854358523,23, 6,60
408,103312071.475174,0.0, 1, 1,15,166632.373347056, 1, 7,15
461,62089590.5178165,0.0, 1, 1,15,100144.500835188, 1, 7,15
4,59, 2
8,46551773.5281199,7056.14998910472, 1, 9,15,23520.4999636824, 1, 1,15
9,27977181.3203229,4240.68027288646, 1, 9,15,14135.6009096215, 1, 1,15
71,31204464.0642059,0.0, 1, 1,15,42054.5337792533, 1,20,15
93,18753591.602701,0.0, 1, 1,15,25274.3822138827, 1,20,15
125,37776986.9148494,6007.79053989333, 1, 1,15,30038.9526994667, 1,19,15
137,22703616.4801278,3610.62603055467, 1, 1,15,18053.1301527734, 1,19,15
138,363433659.965404,0.0, 1, 1,15,969592.00187921,17,17,30
139,0.0,0.0, 1, 1,15,0.0, 1, 1,15
140,19.8306926056572,17.4433016484206, 8, 7,60,26.742550690288,24,18,30
141,20.3790915050934,19.5398774954876, 4, 8,60,22.7417745954035,24,23,60
142,20.5544948522118,19.9999999999998, 8, 6,60,26.7809292733468,24,18,30
143,20.1925937289345,18.7216508242103, 8, 7,60,26.7617399818174,24,18,30
144,20.3112786069185,19.9999999999999,10, 5,45,22.5814501902499,24,22,45
145,20.345185056006,19.7699387477438, 4, 8,60,22.6377414687363,24,22,60
146,173931484.407902,10159.9128734809,24,15,20,100757.442596362, 8, 6,60
147,0.0,0.0, 1, 1,15,0.0, 1, 1,15
148,0.375633062545557,0.361065189361474,23,14,52,0.390431491119899, 8, 6,60
149,103097366.226376,5265.86220505164,24,15,20,60510.9025858885, 8, 6,60
150,0.0,0.0, 1, 1,15,0.0, 1, 1,15
151,0.375332616676865,0.35871836768619,23,15,60,0.390432382653241, 8, 6,60
224,20.5544948522118,19.9999999999998, 8, 6,60,26.7809292733468,24,18,30
225,18.2662698254798,5.75666935334199, 9,17,60,37.968166289058, 3,22,15
258,20.3112786069185,19.9999999999999,10, 5,45,22.5814501902499,24,22,45
259,18.2380591604739,6.14250899209048, 9,17,60,38.3750106261856, 3,21,60
260,304280518.533199,0.0, 1,15,60,339610.23895531, 8, 6,60
291,0.0,0.0, 1, 1,15,0.0, 1, 1,15
322,304280518.533206,0.0, 1,15,60,339610.238955331, 8, 6,60
323,47551391.6472474,0.0, 2,19,15,57339.4010374852, 8, 6,60
324,0.0,0.0, 1, 1,15,0.0, 1, 1,15
325,47551393.9025754,0.0, 2,19,15,57339.4010374885, 8, 6,60
408,93314129.0743511,0.0, 1, 1,15,166632.373347056, 1, 7,15
461,56080920.4677052,0.0, 1, 1,15,100144.500835188, 1, 7,15
4,90, 3
8,51378180.1206674,7056.14998910472, 1, 9,15,23520.4999636824, 1, 1,15
9,30877806.6269772,4240.68027288646, 1, 9,15,14135.6009096215, 1, 1,15
71,34673963.1009943,0.0, 1, 1,15,42054.5337792533, 1,20,15
93,20838728.1353463,0.0, 1, 1,15,25274.3822138827, 1,20,15
125,41886315.6441366,6007.79053989333, 1, 1,15,30038.9526994667, 1,19,15
137,25173284.6850272,3610.62603055467, 1, 1,15,18053.1301527734, 1,19,15
138,554475184.897201,0.0, 1, 1,15,1518901.63342977,23,17,15
139,0.0,0.0, 1, 1,15,0.0, 1, 1,15
140,22.4093433692536,18.014496582131, 2, 7,30,31.3103769402646,19,18,30
141,22.3455145660856,19.8939460716408, 2,10,45,26.0192785323307,19,24,30
142,22.2483775496433,19.9999999999999, 2, 7,60,31.409591174437,19,18,30
143,22.3288604594485,19.0072482910655, 2, 7,30,31.3599840573508,19,18,30
144,22.0431083887126,20., 8,10,30,26.0134305290358,19,23,60
145,22.1943114773991,19.9469730358204, 2,10,45,26.007930997793,19,23,60
146,159641737.281039,8608.65871483331,30,16, 5,82954.1304451694, 8, 6,60
147,0.0,0.0, 1, 1,15,0.0, 1, 1,15
148,0.370498795972074,0.358603210564159,19,14,37,0.383433901759939, 8, 6,60
149,94751487.8858584,3616.73285857688,30,16, 5,50270.6317680249, 6, 3,60
150,0.0,0.0, 1, 1,15,0.0, 1, 1,15
151,0.370258808215804,0.35649598697388,19,15,60,0.383432408631819, 8, 6,60
224,22.2483775496433,19.9999999999999, 2, 7,60,31.409591174437,19,18,30
225,22.0151222995431,6.44845147781174, 7,17,60,38.9853263028761,13, 1,30
258,22.0431083887126,20., 8,10,30,26.0134305290358,19,23,60
259,21.7927695177428,8.40398091787272, 7,17,60,34.9258176912076,31,19,15
260,80429009.562394,0.0, 1, 1,15,233937.137926705, 8, 6,60
291,0.0,0.0, 1, 1,15,0.0, 1, 1,15
322,80429009.5623959,0.0, 1, 1,15,233937.137926707, 8, 6,60
323,4099946.53356341,0.0, 1, 1,15,31794.6434230286, 9, 6,60
324,0.0,0.0, 1, 1,15,0.0, 1, 1,15
325,4099946.92722285,0.0, 1, 1,15,31794.643423029, 9, 6,60
408,103312071.475174,0.0, 1, 1,15,166632.373347056, 1, 7,15
461,62089590.5178165,0.0, 1, 1,15,100144.500835188, 1, 7,15
4,120, 4
8,50145705.9225705,7056.14998910472, 1,15,15,23520.4999636824, 1, 1,15
9,30137101.139313,4240.68027288646, 1,15,15,14135.6009096215, 1, 1,15
71,33223081.68561,0.0, 1, 1,15,42054.5337792533, 1,19,15
93,19966761.9489674,0.0, 1, 1,15,25274.3822138827, 1,19,15
125,40372352.4280835,6007.79053989333, 1, 1,15,30038.9526994667, 1,19,15
137,24263406.9253275,3610.62603055467, 1, 1,15,18053.1301527734, 1,19,15
138,583036037.326055,0.0, 1, 1,15,1560953.65993645, 8,17,15
139,0.0,0.0, 1, 1,15,0.0, 1, 1,15
140,27.1155526188857,18.953748477433, 1, 7,30,40.3015901477688,12,18,45
141,26.8280221562165,20.9977127682673,26,12,45,34.1517065105175,12,23,15
142,26.7214167714254,19.9999999999999, 1, 6,45,40.4525439919822,12,18,30
143,26.9184846951555,19.4768742387164, 1, 7,30,40.3752671601729,12,18,45
144,26.555974920185,20.6749152255895,26,11,45,33.8997484924266,12,21,60
145,26.6919985382007,20.842038963991,26,11,45,34.0045262290951,12,22,60
146,144911215.929729,6275.51722715557, 8,15,50,89552.6479627977,11,22,60
147,0.0,0.0, 1, 1,15,0.0, 1, 1,15
148,0.367648081212193,0.355959079226877,19,12,60,0.376796409194004, 2,18,52
149,86121983.8852308,2264.64871264499,19,20, 7,52433.9156487237,13, 2,60
150,0.0,0.0, 1, 1,15,0.0, 1, 1,15
151,0.367475200962315,0.35538949971146,19,12,60,0.376156475481445,15,19,30
224,26.7214167714254,19.9999999999999, 1, 6,45,40.4525439919822,12,18,30
225,29.4423386280737,9.70346096808812,18,17,37,59.4493887721017,25, 3,60
258,26.555974920185,20.6749152255895,26,11,45,33.8997484924266,12,21,60
259,28.8028258063344,13.9257912833712,18,18, 7,53.2116370394622,25, 1,60
260,7976786.85094056,0.0, 1, 1,15,144048.684498811, 1, 7,30
291,0.0,0.0, 1, 1,15,0.0, 1, 1,15
322,7976786.85094078,0.0, 1, 1,15,144048.684498817, 1, 7,30
323,0.0,0.0, 1, 1,15,0.0, 1, 1,15
324,0.0,0.0, 1, 1,15,0.0, 1, 1,15
325,0.0,0.0, 1, 1,15,0.0, 1, 1,15
408,99979424.0082333,0.0, 1, 1,15,166632.373347056, 1, 6,15
461,60086700.5011127,0.0, 1, 1,15,100144.500835188, 1, 6,15
4,151, 5
8,51378180.1206674,7056.14998910472, 1, 8,15,23520.4999636824, 1, 1,15
9,30877806.6269772,4240.68027288646, 1, 8,15,14135.6009096215, 1, 1,15
71,34673963.1009943,0.0, 1, 1,15,42054.5337792533, 1,19,15
93,20838728.1353463,0.0, 1, 1,15,25274.3822138827, 1,19,15
125,41886315.6441366,6007.79053989333, 1, 1,15,30038.9526994667, 1,18,15
137,25173284.6850272,3610.62603055467, 1, 1,15,18053.1301527734, 1,18,15
138,657233183.189678,0.0, 1, 1,15,1414339.85352158, 5,16,60
139,0.0,0.0, 1, 1,15,0.0, 1, 1,15
140,32.6604778758023,23.2206786197632,30, 6,60,46.5490362847297,25,18,60
141,32.2603995551901,25.6662988253241,30,11,15,39.9408152611806,25,24,15
142,32.2172149538824,22.9772235286134,30, 6,60,46.7632548868147,25,18,45
143,32.4388464148424,23.0989510741883,30, 6,60,46.6521785842171,25,18,45
144,31.9701083201762,25.5606178474615,30, 9,45,39.7812098068972,25,22,60
145,32.1152539376831,25.6169846530499,30,11,30,39.8190998101412,25,22,60
146,157573222.948188,6488.25615907482,31,15, 5,94847.9392989784, 8, 1,60
147,0.0,0.0, 1, 1,15,0.0, 1, 1,15
148,0.367268729518662,0.354415834296895,30,14,15,0.375878017537367, 5,19,52
149,94022968.0261875,403.097820953992,11,18,60,58987.1694396538,17, 5,60
150,0.0,0.0, 1, 1,15,0.0, 1, 1,15
151,0.366999540056667,0.351979249547876,30,15,60,0.377527353549555, 6, 6,60
224,32.2172149538824,22.9772235286134,30, 6,60,46.7632548868147,25,18,45
225,32.3423301494679,10.5274134109635, 8,17,60,60.9756975381639,29, 4,30
258,31.9701083201762,25.5606178474615,30, 9,45,39.7812098068972,25,22,60
259,31.7855369822852,16.2617621794258, 8,17,10,54.165415506983,28,15,30
260,0.0,0.0, 1, 1,15,0.0, 1, 1,15
291,0.0,0.0, 1, 1,15,0.0, 1, 1,15
322,0.0,0.0, 1, 1,15,0.0, 1, 1,15
323,0.0,0.0, 1, 1,15,0.0, 1, 1,15
324,0.0,0.0, 1, 1,15,0.0, 1, 1,15
325,0.0,0.0, 1, 1,15,0.0, 1, 1,15
408,103312071.475174,0.0, 1, 1,15,166632.373347056, 1, 6,15
461,62089590.5178165,0.0, 1, 1,15,100144.500835188, 1, 6,15
4,181, 6
8,49769377.9231516,7056.14998910472, 1, 8,15,23520.4999636824, 1, 1,15
9,29910931.5247591,4240.68027288646, 1, 8,15,14135.6009096215, 1, 1,15
71,33517463.4220648,0.0, 1, 1,15,42054.5337792533, 1,19,15
93,20143682.6244645,0.0, 1, 1,15,25274.3822138827, 1,19,15
125,40516539.4010408,6007.79053989333, 1, 1,15,30038.9526994667, 1,18,15
137,24350061.9500608,3610.62603055467, 1, 1,15,18053.1301527734, 1,18,15
138,650958149.246405,0.0, 1, 1,15,1364532.22353271, 1,16,60
139,0.0,0.0, 1, 1,15,0.0, 1, 1,15
140,38.030498327957,29.7735407070282,15, 7,15,49.9122185827964, 9,19,15
141,37.4774279766347,31.6131902591657,15,11,45,43.1977870175048,10,22,60
142,37.5725668460976,29.4877811447912,15, 6,60,50.010317226455, 9,18,60
143,37.8015325870273,29.6347482440335,15, 6,60,49.9607903602188, 9,19,15
144,37.166678930548,31.4779949346507,15,11,45,42.9681987208803,10,20,60
145,37.3220534535914,31.5455925969082,15,11,45,43.0724396177677,10,22,60
146,159602275.998691,5312.30309034276, 1,15,33,79659.5806549175, 1, 4,30
147,0.0,0.0, 1, 1,15,0.0, 1, 1,15
148,0.367121810446101,0.355912834921586,15,13,60,0.376040617409818,22,20, 7
149,94623721.9382213,1404.34564748899, 1,15,50,50364.4294116854,12, 6,60
150,0.0,0.0, 1, 1,15,0.0, 1, 1,15
151,0.366661208859355,0.354023686492882,15,15,60,0.377290891754645,12, 3,37
224,37.5725668460976,29.4877811447912,15, 6,60,50.010317226455, 9,18,60
225,33.8222952757338,11.2447336001154, 8,18, 7,62.0510052741604,15, 6,60
258,37.166678930548,31.4779949346507,15,11,45,42.9681987208803,10,20,60
259,33.7833071984812,16.6033518557379, 1,14,60,56.1816874039746,14, 5,60
260,0.0,0.0, 1, 1,15,0.0, 1, 1,15
291,0.0,0.0, 1, 1,15,0.0, 1, 1,15
322,0.0,0.0, 1, 1,15,0.0, 1, 1,15
323,0.0,0.0, 1, 1,15,0.0, 1, 1,15
324,0.0,0.0, 1, 1,15,0.0, 1, 1,15
325,0.0,0.0, 1, 1,15,0.0, 1, 1,15
408,99979424.0082333,0.0, 1, 1,15,166632.373347056, 1, 6,15
461,60086700.5011127,0.0, 1, 1,15,100144.500835188, 1, 6,15
4,212, 7
8,51754508.1200864,7056.14998910472, 1,15,15,23520.4999636824, 1, 1,15
9,31103976.2415311,4240.68027288646, 1,15,15,14135.6009096215, 1, 1,15
71,34379581.3645395,0.0, 1, 1,15,42054.5337792533, 1,19,15
93,20661807.4598492,0.0, 1, 1,15,25274.3822138827, 1,19,15
125,41742128.6711792,6007.79053989333, 1, 1,15,30038.9526994667, 1,19,15
137,25086629.660294,3610.62603055467, 1, 1,15,18053.1301527734, 1,19,15
138,527208112.727657,0.0, 1, 1,15,1211875.57498049, 6,16,45
139,0.0,0.0, 1, 1,15,0.0, 1, 1,15
140,27.2377417608116,24.2245060912937,18, 2,15,35.3648824936627, 1,14,15
141,26.0035359205713,24.5353874749547,17,22,15,35.8990173715746, 1, 1,15
142,25.9221336530115,23.9548982064206, 3,14,15,35.0188398191044, 1,13,60
143,26.5799377069115,24.149185159588,17,21,60,35.1044412617758, 1,13,60
144,25.5466707233218,23.9679943323593,18,14,15,35.4473683058225, 1, 1,15
145,25.7751033219466,24.2709346972454,17,21,60,35.6731928386986, 1, 1,15
146,27162202.5975688,0.0, 1,14, 2,52353.5024911078, 1, 1,15
147,22863960.8453186,0.0, 1, 1,15,50895.7175580496,30,14,45
148,0.350709077427912,0.34147248225309,20,15,60,0.363595835844595, 1, 1,60
149,14557805.1649371,0.0, 1,14, 2,34656.2215883386, 1, 3,60
150,13603297.252558,0.0, 1, 1,15,29713.6784850218,30,14,45
151,0.350269644925394,0.341465967542353,20,15,60,0.365375586651384, 1, 3,60
224,25.9221336530115,23.3556495584586, 2,14, 5,35.0188398191044, 1,13,60
225,71.6620172762765,47.1317631821229, 1,13,60,90.7428350464805, 2,14, 3
258,25.5466707233218,23.2631293582607, 1,14, 3,35.4473683058225, 1, 1,15
259,73.30866685545,46.8826577468355, 1, 1,15,89.648074083364, 2,14, 3
260,0.0,0.0, 1, 1,15,0.0, 1, 1,15
291,541261783.645432,0.0, 1, 1,15,1459625.99706604, 1,14,45
322,4.516374474405893E-006,0.0, 1, 1,15,1.702574081718922E-007, 1,16,15
323,0.0,0.0, 1, 1,15,0.0, 1, 1,15
324,148689375.013248,0.0, 1, 1,15,940978.389890621, 1,14,45
325,1.023492854104998E-006,0.0, 1, 1,15,1.362877810606733E-007, 1,14,45
408,103312071.475174,0.0, 1, 1,15,166632.373347056, 1, 6,15
461,62089590.5178165,0.0, 1, 1,15,100144.500835188, 1, 6,15
4,243, 8
8,51378180.1206674,7056.14998910472, 1, 8,15,23520.4999636824, 1, 1,15
9,30877806.6269772,4240.68027288646, 1, 8,15,14135.6009096215, 1, 1,15
71,34673963.1009943,0.0, 1, 1,15,42054.5337792533, 1,19,15
93,20838728.1353463,0.0, 1, 1,15,25274.3822138827, 1,19,15
125,41886315.6441366,6007.79053989333, 1, 1,15,30038.9526994667, 1,18,15
137,25173284.6850272,3610.62603055467, 1, 1,15,18053.1301527734, 1,18,15
138,583920647.616251,0.0, 1, 1,15,1389749.76899789,27,16,30
139,0.0,0.0, 1, 1,15,0.0, 1, 1,15
140,27.3625059313732,23.172611381942,26, 7,15,31.5055265107355, 7,17,30
141,25.9003268667835,24.3964190483249,26, 8,15,27.8501906424044, 7,14,15
142,25.9316939594676,22.9785509615019,26, 6,60,31.2668633379311, 7,13,60
143,26.6470999454204,23.0763194243133,26, 7,15,31.1489151792168, 7,13,60
144,25.4419155345448,23.9421689149797,25,14,15,28.1148324232024, 7,13,60
145,25.6711212006642,24.3630500779033,25,21,60,27.9498822479075, 7,13,60
146,27313944.3364142,0.0, 1,14, 1,33231.4214001259,28, 6,60
147,24439760.8565663,0.0, 1, 1,15,52249.1460547629, 7,15,60
148,0.350149834881571,0.339055036319495, 7,15,60,0.35779443248442,28, 6,60
149,14218825.219014,0.0, 1,13,30,20961.8697943183,28, 6,60
150,14694692.9237456,0.0, 1, 1,15,30936.5043448111, 7,15,60
151,0.349578725284611,0.339045619942463, 7,15,60,0.358540154681164,28, 6,60
224,25.9316939594676,22.9785509615019,26, 6,60,31.2668633379311, 7,13,60
225,70.3348529016359,47.2808738117675,30,13,60,90.8054551639406, 2, 5,60
258,25.4419155345448,23.5526874118915,15,14, 3,28.1148324232024, 7,13,60
259,72.4231474571344,54.2589120185675,30,13,60,92.1085298251835, 2, 5,60
260,0.0,0.0, 1, 1,15,0.0, 1, 1,15
291,590521777.942691,0.0, 1, 1,15,1095577.03847095, 7,17,30
322,5.349512905377713E-006,0.0, 1, 1,15,1.186890585813671E-007,30,16,45
323,0.0,0.0, 1, 1,15,0.0, 1, 1,15
324,149065335.712805,0.0, 1, 1,15,311711.059106801, 7,14, 1
325,1.125382128611671E-006,0.0, 1, 1,15,5.305196282279212E-008, 7,14,45
408,103312071.475174,0.0, 1, 1,15,166632.373347056, 1, 6,15
461,62089590.5178165,0.0, 1, 1,15,100144.500835188, 1, 6,15
4,273, 9
8,49957541.9228611,7056.14998910472, 1, 8,15,23520.4999636824, 1, 1,15
9,30024016.332036,4240.68027288646, 1, 8,15,14135.6009096215, 1, 1,15
71,33370272.5538374,0.0, 1, 1,15,42054.5337792533, 1,19,15
93,20055222.286716,0.0, 1, 1,15,25274.3822138827, 1,19,15
125,40444445.9145621,6007.79053989333, 1, 1,15,30038.9526994667, 1,18,15
137,24306734.4376941,3610.62603055467, 1, 1,15,18053.1301527734, 1,18,15
138,497065745.20073,0.0, 1, 1,15,1428897.61313063,10,16,60
139,0.0,0.0, 1, 1,15,0.0, 1, 1,15
140,25.9915716672414,22.4440861378527,30, 7,30,31.2613603866941, 6,17,45
141,25.2188147389217,23.8958758245139,30, 8,60,26.5389587320436, 7,14,15
142,24.8049524517935,22.2011169471822,30, 7,30,29.2363445246861, 7,13,60
143,25.3982620595174,22.3226015425175,30, 7,30,29.1734799369513, 7,13,60
144,24.856405456759,23.7957573085139,30, 7,60,26.7525434543451, 7,13,60
145,25.0376100978403,23.8610865235112,30, 7,60,26.6178811581527, 7,13,60
146,47452231.6499143,0.0, 1,14, 1,49166.3311495626,15,24,60
147,2812257.34529234,0.0, 1, 1,15,26548.7941309368,20,18,60
148,0.353724516574826,0.342506007441791, 6,15,60,0.361870749156982,30,24,60
149,28598938.4047905,0.0, 1,14, 1,29536.6642518986,15,24,60
150,1622542.23754545,0.0, 1, 1,15,16946.6437800108,20,18,60
151,0.353791459112136,0.342511544209817, 6,15,60,0.362748446325706,30,24,60
224,24.8049524517935,22.2011169471822,30, 7,30,29.2363445246861, 7,13,60
225,61.9402263465827,34.481271859071,16,13,60,85.0299429440286,29, 5,60
258,24.856405456759,23.6055094440491, 1,14, 3,26.7525434543451, 7,13,60
259,61.6021088115375,37.0418628928592,16,22,30,83.4618892938957, 9, 6,60
260,0.0,0.0, 1, 1,15,0.0, 1, 1,15
291,398803944.936425,0.0, 1, 1,15,1026075.58999297, 6,18,15
322,7.940361998391510E-006,0.0, 1, 1,15,1.258513293578289E-007, 6,18,45
323,0.0,0.0, 1, 1,15,0.0, 1, 1,15
324,84812524.48002,0.0, 1, 1,15,191581.061480898, 7,14,45
325,1.651654367559477E-006,0.0, 1, 1,15,1.665227955527371E-008,15,14,45
408,99979424.0082333,0.0, 1, 1,15,166632.373347056, 1, 6,15
461,60086700.5011127,0.0, 1, 1,15,100144.500835188, 1, 6,15
4,304,10
8,51566344.1203769,7056.14998910472, 1,15,15,23520.4999636824, 1, 1,15
9,30990891.4342542,4240.68027288646, 1,15,15,14135.6009096215, 1, 1,15
71,34526772.2327669,0.0, 1, 1,15,42054.5337792533, 1,19,15
93,20750267.7975977,0.0, 1, 1,15,25274.3822138827, 1,19,15
125,41814222.1576579,6007.79053989333, 1, 1,15,30038.9526994667, 1,19,15
137,25129957.1726606,3610.62603055467, 1, 1,15,18053.1301527734, 1,19,15
138,411152154.152463,0.0, 1, 1,15,1019673.01492276,15,17,15
139,0.0,0.0, 1, 1,15,0.0, 1, 1,15
140,26.5220155516073,19.3536677616363,24, 7,30,35.9346171526683, 9,18,15
141,26.6705642619046,21.6073445083785,31,14,15,31.8285394687273, 9,23,15
142,26.2481859037141,19.9999999999999,31,10,15,36.0498292174842, 9,18,30
143,26.3851007276607,19.6768338808182,24, 7,30,35.9899955194978, 9,18,15
144,26.5131922862277,21.2862854089969,31,13,45,31.7637957156794, 9,21,60
145,26.5918782740661,21.4481458888415,31,13,60,31.7752086493565, 9,22,60
146,119307574.174977,6157.51484783333,14,18,52,77601.1293034139,15,24,60
147,0.0,0.0, 1, 1,15,0.0, 1, 1,15
148,0.363263738263441,0.354445293954598, 2,12,60,0.372287411606084,18,18,18
149,73422655.0914711,353.255421843964,14,18,52,47659.068450563,15,24,60
150,0.0,0.0, 1, 1,15,0.0, 1, 1,15
151,0.363602964651616,0.352596741756352,27,15,60,0.374243874387624,19, 3,22
224,26.2481859037141,19.9999999999999,31,10,15,36.1273513555608, 9,18,15
225,37.4178078251918,13.3303812690933,16,17,37,66.6733572771566,28,24,30
258,26.5131922862277,21.2862854089969,31,13,45,31.7637957156794, 9,21,60
259,36.4897474661048,16.5988269964881,19,15,45,60.2582137654559,28,24,30
260,3068792.48886323,0.0, 1, 1,15,86255.3341372207,24, 7,30
291,0.0,0.0, 1, 1,15,0.0, 1, 1,15
322,3068792.48886331,0.0, 1, 1,15,86255.3341372236,24, 7,30
323,0.0,0.0, 1, 1,15,0.0, 1, 1,15
324,0.0,0.0, 1, 1,15,0.0, 1, 1,15
325,0.0,0.0, 1, 1,15,0.0, 1, 1,15
408,103312071.475174,0.0, 1, 1,15,166632.373347056, 1, 6,15
461,62089590.5178165,0.0, 1, 1,15,100144.500835188, 1, 6,15
4,334,11
8,49769377.9231516,7056.14998910472, 1, 9,15,23520.4999636824, 1, 1,15
9,29910931.5247591,4240.68027288646, 1, 9,15,14135.6009096215, 1, 1,15
71,33517463.4220648,0.0, 1, 1,15,42054.5337792533, 1,20,15
93,20143682.6244645,0.0, 1, 1,15,25274.3822138827, 1,20,15
125,40516539.4010408,6007.79053989333, 1, 1,15,30038.9526994667, 1,19,15
137,24350061.9500608,3610.62603055467, 1, 1,15,18053.1301527734, 1,19,15
138,279774038.74537,0.0, 1, 1,15,659894.455163656, 6,14,60
139,0.0,0.0, 1, 1,15,0.0, 1, 1,15
140,20.3666143597764,17.4867103242654,27, 7,60,26.6582038492681, 6,17,45
141,20.9820040368831,19.5812915106032,27, 7,60,24.3548816291938, 7,23,60
142,20.8207362136006,19.9999999999998,12, 7,30,26.755495163895, 6,17,30
143,20.5936752866885,18.7433551621326,27, 7,60,26.6890207382781, 6,17,45
144,20.9362130767841,19.9999999999999,12, 8,45,24.6252461101857, 7,22,60
145,20.9591085568336,19.7906457553016,27, 7,60,24.4862226626739, 7,23,60
146,124686241.551388,6266.34452678076, 7,14,37,81736.5444541937,30,24,60
147,0.0,0.0, 1, 1,15,0.0, 1, 1,15
148,0.36630243915957,0.35425717088681, 7,13,60,0.380987551526802,23, 8,60
149,75609152.3205046,3011.45004883716, 7,14,37,48196.8585043083,23, 7,60
150,0.0,0.0, 1, 1,15,0.0, 1, 1,15
151,0.366451332793665,0.352316956795621, 6,15,60,0.380997128312187,23, 8,60
224,20.8207362136006,19.9999999999998,12, 7,30,26.755495163895, 6,17,30
225,35.7629260761662,15.9422305894437,23,14,30,62.2142994683374,19,11,45
258,20.9362130767841,19.9999999999999,12, 8,45,24.6252461101857, 7,22,60
259,35.3308365981977,15.3849811814903,23,13,15,61.041357087404,19,12,45
260,186170957.740051,0.0, 1, 1,15,298231.830960845,27, 6,60
291,0.0,0.0, 1, 1,15,0.0, 1, 1,15
322,186170957.740056,0.0, 1, 1,15,298231.830960849,27, 6,60
323,18790474.9702844,0.0, 1, 1,15,43514.5510847262,27, 6,60
324,0.0,0.0, 1, 1,15,0.0, 1, 1,15
325,18790475.8094634,0.0, 1, 1,15,43514.5510847272,27, 6,60
408,99979424.0082333,0.0, 1, 1,15,166632.373347056, 1, 7,15
461,60086700.5011127,0.0, 1, 1,15,100144.500835188, 1, 7,15
4,365,12
8,51754508.1200864,7056.14998910472, 1, 9,15,23520.4999636824, 1, 1,15
9,31103976.2415311,4240.68027288646, 1, 9,15,14135.6009096215, 1, 1,15
71,34379581.3645395,0.0, 1, 1,15,42054.5337792533, 1,20,15
93,20661807.4598492,0.0, 1, 1,15,25274.3822138827, 1,20,15
125,41742128.6711792,6007.79053989333, 1, 1,15,30038.9526994667, 1,19,15
137,25086629.660294,3610.62603055467, 1, 1,15,18053.1301527734, 1,19,15
138,276322167.649555,0.0, 1, 1,15,711990.0439788,31,15,30
139,0.0,0.0, 1, 1,15,0.0, 1, 1,15
140,18.8610673728288,17.1439378441624,16, 8,30,22.0749333017468,29,17,45
141,19.8945702816394,19.468398973806,31, 8,60,20.6757632330435,29,23,30
142,20.0519277449649,19.9999999999998,20,10,60,21.8522269865522,29,16,45
143,19.4564975588968,18.5719689220811,16, 8,30,21.9466178482182,29,16,45
144,20.0192080258266,19.9999999999999,20, 6,45,20.7610286946319,29,20,60
145,19.956889153733,19.734199486903,31, 8,60,20.684864311696,29,22,60
146,197591475.66916,17179.0140053809,28,15,22,111551.418746091,31, 9,60
147,0.0,0.0, 1, 1,15,0.0, 1, 1,15
148,0.376395233859029,0.362575465999767,29,14,60,0.394502229702128,31,24,60
149,118536510.909292,9622.96216935602,29,15,60,66788.7450017989,31, 9,60
150,0.0,0.0, 1, 1,15,0.0, 1, 1,15
151,0.376354440486623,0.361551887432909,29,15,60,0.394497987816252,31,24,60
224,20.0519277449649,19.9999999999998,20,10,60,21.8522269865522,29,16,45
225,20.2662402955924,7.51956805631428,16,19,60,40.2267498273325,25, 4,30
258,20.0192080258266,19.9999999999999,20, 6,45,20.7610286946319,29,20,60
259,20.2746014128125,7.3902606942976,16,19,60,40.8390971839335,25, 4,15
260,461670089.787892,0.0, 1,15,15,378605.291878186,16, 8,30
291,0.0,0.0, 1, 1,15,0.0, 1, 1,15
322,461670089.787902,0.0, 1,15,15,378605.291878196,16, 8,30
323,79063854.7509415,0.0, 1,20,15,69354.8828862524,17, 8,60
324,0.0,0.0, 1, 1,15,0.0, 1, 1,15
325,79063854.7807054,0.0, 1,20,15,69354.8828862534,17, 8,60
408,103312071.475174,0.0, 1, 1,15,166632.373347056, 1, 7,15
461,62089590.5178165,0.0, 1, 1,15,100144.500835188, 1, 7,15
End of Data
 Number of Records Written=         384
