Program Version,EnergyPlus, Version 8.4.0-09f5359d8a, YMD=2023.08.02 14:39
1,5,Environment Title[],Latitude[deg],Longitude[deg],Time Zone[],Elevation[m]
2,6,Day of Simulation[],Month[],Day of Month[],DST Indicator[1=yes 0=no],Hour[],StartMinute[],EndMinute[],DayType
3,3,Cumulative Day of Simulation[],Month[],Day of Month[],DST Indicator[1=yes 0=no],DayType  ! When Daily Report Variables Requested
4,2,Cumulative Days of Simulation[],Month[]  ! When Monthly Report Variables Requested
5,1,Cumulative Days of Simulation[] ! When Run Period Report Variables Requested
8,9,PERIM,Zone People Total Heating Energy [J] !Monthly  [Value,Min,Day,Hour,Minute,Max,Day,Hour,Minute]
9,9,CORE,Zone People Total Heating Energy [J] !Monthly  [Value,Min,Day,Hour,Minute,Max,Day,Hour,Minute]
71,9,PERIM,Zone Lights Electric Energy [J] !Monthly  [Value,Min,Day,Hour,Minute,Max,Day,Hour,Minute]
93,9,CORE,Zone Lights Electric Energy [J] !Monthly  [Value,Min,Day,Hour,Minute,Max,Day,Hour,Minute]
125,9,PERIM,Zone Electric Equipment Electric Energy [J] !Monthly  [Value,Min,Day,Hour,Minute,Max,Day,Hour,Minute]
137,9,CORE,Zone Electric Equipment Electric Energy [J] !Monthly  [Value,Min,Day,Hour,Minute,Max,Day,Hour,Minute]
138,9,PERIM,Zone Windows Total Transmitted Solar Radiation Energy [J] !Monthly  [Value,Min,Day,Hour,Minute,Max,Day,Hour,Minute]
139,9,CORE,Zone Windows Total Transmitted Solar Radiation Energy [J] !Monthly  [Value,Min,Day,Hour,Minute,Max,Day,Hour,Minute]
140,9,PERIM,Zone Mean Radiant Temperature [C] !Monthly [Value,Min,Day,Hour,Minute,Max,Day,Hour,Minute]
141,9,CORE,Zone Mean Radiant Temperature [C] !Monthly [Value,Min,Day,Hour,Minute,Max,Day,Hour,Minute]
142,9,PERIM,Zone Mean Air Temperature [C] !Monthly [Value,Min,Day,Hour,Minute,Max,Day,Hour,Minute]
143,9,PERIM,Zone Operative Temperature [C] !Monthly [Value,Min,Day,Hour,Minute,Max,Day,Hour,Minute]
144,9,CORE,Zone Mean Air Temperature [C] !Monthly [Value,Min,Day,Hour,Minute,Max,Day,Hour,Minute]
145,9,CORE,Zone Operative Temperature [C] !Monthly [Value,Min,Day,Hour,Minute,Max,Day,Hour,Minute]
146,9,PERIM,Zone Infiltration Total Heat Loss Energy [J] !Monthly  [Value,Min,Day,Hour,Minute,Max,Day,Hour,Minute]
147,9,PERIM,Zone Infiltration Total Heat Gain Energy [J] !Monthly  [Value,Min,Day,Hour,Minute,Max,Day,Hour,Minute]
148,9,PERIM,Zone Infiltration Air Change Rate [ach] !Monthly [Value,Min,Day,Hour,Minute,Max,Day,Hour,Minute]
149,9,CORE,Zone Infiltration Total Heat Loss Energy [J] !Monthly  [Value,Min,Day,Hour,Minute,Max,Day,Hour,Minute]
150,9,CORE,Zone Infiltration Total Heat Gain Energy [J] !Monthly  [Value,Min,Day,Hour,Minute,Max,Day,Hour,Minute]
151,9,CORE,Zone Infiltration Air Change Rate [ach] !Monthly [Value,Min,Day,Hour,Minute,Max,Day,Hour,Minute]
224,9,PERIM,Zone Air Temperature [C] !Monthly [Value,Min,Day,Hour,Minute,Max,Day,Hour,Minute]
225,9,PERIM,Zone Air Relative Humidity [%] !Monthly [Value,Min,Day,Hour,Minute,Max,Day,Hour,Minute]
258,9,CORE,Zone Air Temperature [C] !Monthly [Value,Min,Day,Hour,Minute,Max,Day,Hour,Minute]
259,9,CORE,Zone Air Relative Humidity [%] !Monthly [Value,Min,Day,Hour,Minute,Max,Day,Hour,Minute]
260,9,PERIM IDEAL LOADS AIR,Zone Ideal Loads Supply Air Total Heating Energy [J] !Monthly  [Value,Min,Day,Hour,Minute,Max,Day,Hour,Minute]
291,9,PERIM IDEAL LOADS AIR,Zone Ideal Loads Supply Air Total Cooling Energy [J] !Monthly  [Value,Min,Day,Hour,Minute,Max,Day,Hour,Minute]
322,9,PERIM IDEAL LOADS AIR,Zone Ideal Loads Zone Total Heating Energy [J] !Monthly  [Value,Min,Day,Hour,Minute,Max,Day,Hour,Minute]
323,9,CORE IDEAL LOADS AIR,Zone Ideal Loads Supply Air Total Heating Energy [J] !Monthly  [Value,Min,Day,Hour,Minute,Max,Day,Hour,Minute]
324,9,CORE IDEAL LOADS AIR,Zone Ideal Loads Supply Air Total Cooling Energy [J] !Monthly  [Value,Min,Day,Hour,Minute,Max,Day,Hour,Minute]
325,9,CORE IDEAL LOADS AIR,Zone Ideal Loads Zone Total Heating Energy [J] !Monthly  [Value,Min,Day,Hour,Minute,Max,Day,Hour,Minute]
408,9,DHW PERIM,Water Use Equipment Heating Energy [J] !Monthly  [Value,Min,Day,Hour,Minute,Max,Day,Hour,Minute]
461,9,DHW CORE,Water Use Equipment Heating Energy [J] !Monthly  [Value,Min,Day,Hour,Minute,Max,Day,Hour,Minute]
End of Data Dictionary
1,ARCHSIM,  37.57, 126.97,   9.00,  87.10
4,31, 1
8,51566344.1234476,7056.14998952482, 1,16,15,23520.4999650827, 1, 1,15
9,30990891.4426466,4240.68027403489, 1,16,15,14135.6009134496, 1, 1,15
71,34526772.2348225,0.0, 1, 1,15,42054.5337817571, 1,20,15
93,20750267.8032171,0.0, 1, 1,15,25274.3822207273, 1,20,15
125,41814222.1601471,6007.79054025102, 1, 1,15,30038.9527012551, 1,20,15
137,25129957.1794661,3610.62603153247, 1, 1,15,18053.1301576624, 1,20,15
138,136100781.650752,0.0, 1, 1,15,216621.683691737,31,12,30
139,0.0,0.0, 1, 1,15,0.0, 1, 1,15
140,18.185986417618,17.0976432104777,23, 7,60,19.8192782831704, 8,15,15
141,19.684927648533,19.409354733271,15, 8,60,20.0427269194118, 8,23,60
142,20.,19.9999999999998,21, 8,60,20.0000000000002,23, 1,60
143,19.092993208809,18.5488216052389,23, 7,60,19.9096391415852, 8,15,15
144,20.0014432428737,19.9999999999999,15, 4,60,20.1832427656419, 8,20,45
145,19.8431854457033,19.7046773666355,15, 8,60,20.0864161318576, 8,21,60
146,211380952.545273,25281.9662248352, 6,15,60,108836.443353097,23, 6,60
147,0.0,0.0, 1, 1,15,0.0, 1, 1,15
148,0.37845351587327,0.361336851829934, 6,15,60,0.393837576777931,23, 6,60
149,126987495.136959,15150.0151262487, 6,15,60,65485.6471979807,23, 6,60
150,0.0,0.0, 1, 1,15,0.0, 1, 1,15
151,0.378455728362148,0.361337751081118, 6,15,60,0.393836010614769,23, 6,60
224,20.,19.9999999999998,21, 8,60,20.0000000000002,23, 1,60
225,17.6772407325317,6.87133499227286,14,19,60,34.9211338418471, 2,22,45
258,20.0014432428737,19.9999999999999,15, 4,60,20.1832427656419, 8,20,45
259,17.6445667732891,6.25989171274119,14,19,60,35.3073979252272, 2,22,30
260,640172805.521855,32011.9284197395, 8,15,15,389762.608538305,23, 6,60
291,0.0,0.0, 1, 1,15,0.0, 1, 1,15
322,640172805.521869,32011.9284197408, 8,15,15,389762.608538313,23, 6,60
323,108385435.967566,0.0, 2,20,15,75211.0049716511,23, 6,60
324,0.0,0.0, 1, 1,15,0.0, 1, 1,15
325,108385435.967569,0.0, 2,20,15,75211.0049716551,23, 6,60
408,103312071.481325,0.0, 1, 1,15,166632.373356976, 1, 7,15
461,62089590.5346309,0.0, 1, 1,15,100144.500862308, 1, 7,15
4,59, 2
8,46551773.5308919,7056.14998952482, 1, 9,15,23520.4999650827, 1, 1,15
9,27977181.3278992,4240.68027403489, 1, 9,15,14135.6009134496, 1, 1,15
71,31204464.0660637,0.0, 1, 1,15,42054.5337817571, 1,20,15
93,18753591.6077796,0.0, 1, 1,15,25274.3822207273, 1,20,15
125,37776986.9170983,6007.79054025102, 1, 1,15,30038.9527012551, 1,19,15
137,22703616.4862762,3610.62603153247, 1, 1,15,18053.1301576624, 1,19,15
138,158387540.599095,0.0, 1, 1,15,260115.397486846,18,13,45
139,0.0,0.0, 1, 1,15,0.0, 1, 1,15
140,18.5697778994558,17.3095242177086, 8, 6,60,20.5842822582907,27,15,60
141,19.8035524983257,19.5051448047428,10, 6,60,20.3882504238767,27,23,30
142,20.002451522657,19.9999999999998,10, 5,30,20.2979076949089,27,15,60
143,19.2861147110564,18.6547621088543, 8, 6,60,20.4410949765998,27,15,60
144,20.0197537324741,19.9999999999999, 9, 3,30,20.6240031354563,23,20,45
145,19.9116531153999,19.7525724023714,10, 6,60,20.4594332065579,23,20,60
146,166582076.307402,13956.6949133188,23,19,30,99952.487498654, 8, 6,60
147,0.0,0.0, 1, 1,15,0.0, 1, 1,15
148,0.374630966857477,0.35793680191185,24,15,60,0.390092655930065, 8, 6,60
149,100273058.507255,9078.00570120505,23,18,60,60034.8174343783, 8, 6,60
150,0.0,0.0, 1, 1,15,0.0, 1, 1,15
151,0.37465206437847,0.357865028030301,23,15,60,0.390093393178732, 8, 6,60
224,20.002451522657,19.9999999999998,10, 5,30,20.2979076949089,27,15,60
225,18.452923164319,6.48274790292048, 9,17,60,37.9723218857489, 3,22,15
258,20.0197537324741,19.9999999999999, 9, 3,30,20.6240031354563,23,20,45
259,18.4730419477129,6.12581511894748, 9,17,60,38.3750380927689, 3,21,60
260,451372207.850836,0.0,23,14,45,353558.317309835, 8, 6,60
291,0.0,0.0, 1, 1,15,0.0, 1, 1,15
322,451372207.850846,0.0,23,14,45,353558.317309837, 8, 6,60
323,72914541.5400475,0.0, 5,20,15,65881.1033448908, 8, 6,60
324,0.0,0.0, 1, 1,15,0.0, 1, 1,15
325,72914541.5400498,0.0, 5,20,15,65881.1033448944, 8, 6,60
408,93314129.0799063,0.0, 1, 1,15,166632.373356976, 1, 7,15
461,56080920.4828925,0.0, 1, 1,15,100144.500862308, 1, 7,15
4,90, 3
8,51378180.1237269,7056.14998952482, 1, 9,15,23520.4999650827, 1, 1,15
9,30877806.635339,4240.68027403489, 1, 9,15,14135.6009134496, 1, 1,15
71,34673963.1030587,0.0, 1, 1,15,42054.5337817571, 1,20,15
93,20838728.1409896,0.0, 1, 1,15,25274.3822207273, 1,20,15
125,41886315.6466301,6007.79054025102, 1, 1,15,30038.9527012551, 1,19,15
137,25173284.6918444,3610.62603153247, 1, 1,15,18053.1301576624, 1,19,15
138,237097920.498779,0.0, 1, 1,15,301917.952542479,23,13,30
139,0.0,0.0, 1, 1,15,0.0, 1, 1,15
140,19.4518941843553,17.6477695984976, 8, 6,60,22.1090430443206,20,16,15
141,20.2007999229014,19.5862044425084, 8, 7,60,21.3734764173986,20,23,60
142,20.1481934360058,19.9999999999998, 7, 8,30,22.2059505084422,30,18,45
143,19.8000438101806,18.8238847992488, 8, 6,60,22.0574007227609,30,18,45
144,20.2025572973433,19.9999999999999, 9, 5,15,21.5587142421626,20,20,60
145,20.2016786101223,19.7931022212542, 8, 7,60,21.4488818571834,20,22,60
146,135811713.10543,2823.71660856434,19,19,60,81620.3339619399, 8, 6,60
147,0.0,0.0, 1, 1,15,0.0, 1, 1,15
148,0.367595596165527,0.353641970002876,19,15,60,0.383114177216307, 8, 6,60
149,82036276.00329,1338.65239610124,19,19,60,49335.3376950763, 8, 6,60
150,0.0,0.0, 1, 1,15,0.0, 1, 1,15
151,0.367664461907136,0.352577116475562,19,15,60,0.383108313125502, 8, 6,60
224,20.1481934360058,19.9999999999998, 7, 8,30,22.2059505084422,30,18,45
225,23.4377722739124,8.76021783384155, 7,17,60,41.4074593595649,31,20,15
258,20.2025572973433,19.9999999999999, 9, 5,15,21.5587142421626,20,20,60
259,23.3923153797668,8.47770650063009, 7,17,60,39.5713763171391,31,17,60
260,253911779.421895,0.0, 1,13,30,290226.466163173, 8, 6,60
291,0.0,0.0, 1, 1,15,0.0, 1, 1,15
322,253911779.4219,0.0, 1,13,30,290226.466163173, 8, 6,60
323,29185853.5657432,0.0, 1,19,15,51410.414655095, 8, 6,60
324,0.0,0.0, 1, 1,15,0.0, 1, 1,15
325,29185853.5657442,0.0, 1,19,15,51410.4146550969, 8, 6,60
408,103312071.481325,0.0, 1, 1,15,166632.373356976, 1, 7,15
461,62089590.5346309,0.0, 1, 1,15,100144.500862308, 1, 7,15
4,120, 4
8,50145705.9255566,7056.14998952482, 1,15,15,23520.4999650827, 1, 1,15
9,30137101.1474742,4240.68027403489, 1,15,15,14135.6009134496, 1, 1,15
71,33223081.6875881,0.0, 1, 1,15,42054.5337817571, 1,19,15
93,19966761.9543745,0.0, 1, 1,15,25274.3822207273, 1,19,15
125,40372352.4304868,6007.79054025102, 1, 1,15,30038.9527012551, 1,19,15
137,24263406.9318983,3610.62603153247, 1, 1,15,18053.1301576624, 1,19,15
138,276506866.534511,0.0, 1, 1,15,395954.286761287,29,18,30
139,0.0,0.0, 1, 1,15,0.0, 1, 1,15
140,21.9830052883863,18.0843054151168, 1, 7,15,27.5206840661691,12,18,60
141,22.3934351212831,19.8616852956463, 2, 8,45,26.3651228222316,13,22,60
142,22.0068622208861,19.9999999999999,26, 5,45,27.8165569557086,12,18,45
143,21.9949337546362,19.0421527075584, 1, 7,15,27.6659066906264,12,18,60
144,22.3351637252764,20., 2, 6,30,26.5449270999999,13,21,60
145,22.3642994232798,19.9308426478231, 2, 8,45,26.4317323440265,13,22,60
146,95577102.0972865,0.0, 7,19,60,65842.8506350423, 1, 1,60
147,50446.4595612719,0.0, 1, 1,15,9822.02038645172,19,19,60
148,0.361643798927244,0.349706734816491,19,12,60,0.372219173421298, 1, 4,60
149,59506049.2311161,0.0, 7,19,45,38866.1755823771, 1, 1,60
150,107896.089720801,0.0, 1, 1,15,10610.7573129002,19,19,60
151,0.362054486892899,0.348133144471766,19,12,60,0.372238522057974, 1, 4,60
224,22.0068622208861,19.9999999999999,26, 5,45,27.8165569557086,12,18,45
225,35.0385904484264,16.2376628903046,18,18,15,63.4907875951979,20,23,45
258,22.3351637252764,20., 2, 6,30,26.5449270999999,13,21,60
259,34.1853521929189,17.7809827806097,18,18,15,57.3959785941797,25, 1,60
260,51667228.5387946,0.0, 1,14,60,217378.757259467, 1, 7,15
291,0.0,0.0, 1, 1,15,0.0, 1, 1,15
322,51667228.5387962,0.0, 1,14,60,217378.757259471, 1, 7,15
323,2083042.19400275,0.0, 1, 1,15,23895.8547876562, 2, 6,60
324,0.0,0.0, 1, 1,15,0.0, 1, 1,15
325,2083042.19400283,0.0, 1, 1,15,23895.8547876573, 2, 6,60
408,99979424.0141854,0.0, 1, 1,15,166632.373356976, 1, 6,15
461,60086700.5173848,0.0, 1, 1,15,100144.500862308, 1, 6,15
4,151, 5
8,51378180.1237269,7056.14998952482, 1, 8,15,23520.4999650827, 1, 1,15
9,30877806.635339,4240.68027403489, 1, 8,15,14135.6009134496, 1, 1,15
71,34673963.1030587,0.0, 1, 1,15,42054.5337817571, 1,19,15
93,20838728.1409896,0.0, 1, 1,15,25274.3822207273, 1,19,15
125,41886315.6466301,6007.79054025102, 1, 1,15,30038.9527012551, 1,18,15
137,25173284.6918444,3610.62603153247, 1, 1,15,18053.1301576624, 1,18,15
138,329970730.560499,0.0, 1, 1,15,602065.090063162,30,18,30
139,0.0,0.0, 1, 1,15,0.0, 1, 1,15
140,26.7036135805624,20.21666875256, 3, 7,15,35.4578995348386,25,18,45
141,26.9510845636286,22.2786872269054, 4,11,45,33.1197924174643,26,22,60
142,26.500753868599,19.8877094851364, 3, 6,60,35.826023059565,25,18,45
143,26.6021837245807,20.0587516266763, 3, 6,60,35.6419612972018,25,18,45
144,26.8887552841366,22.089738311383, 4,11,30,33.2606059308755,26,21,60
145,26.9199199238826,22.1855850954096, 4,11,30,33.1707429318635,26,22,60
146,97309135.5664594,0.0,11,18,60,66239.3976056495,17, 5,60
147,21433.4146557583,0.0, 1, 1,15,3813.37409783966,21,19,60
148,0.360147196824984,0.350624433414893,23,15,60,0.366893668168239,18,21,52
149,61083851.0343695,0.0, 7,20,60,43309.6229264229,17, 5,60
150,79002.0371785183,0.0, 1, 1,15,7701.39309165931,11,18,60
151,0.360629470733015,0.348376772625486,23,15,60,0.369008101074906,18,24,60
224,26.500753868599,19.8877094851364, 3, 6,60,35.826023059565,25,18,45
225,40.779088170541,19.2717087171461, 8,18,15,65.2927976672063,28, 5,60
258,26.8887552841366,22.089738311383, 4,11,30,33.2606059308755,26,21,60
259,39.5418669049091,21.8893764467233,17,16,15,61.0574249290803,28,15,30
260,0.0,0.0, 1, 1,15,0.0, 1, 1,15
291,0.0,0.0, 1, 1,15,0.0, 1, 1,15
322,0.0,0.0, 1, 1,15,0.0, 1, 1,15
323,0.0,0.0, 1, 1,15,0.0, 1, 1,15
324,0.0,0.0, 1, 1,15,0.0, 1, 1,15
325,0.0,0.0, 1, 1,15,0.0, 1, 1,15
408,103312071.481325,0.0, 1, 1,15,166632.373356976, 1, 6,15
461,62089590.5346309,0.0, 1, 1,15,100144.500862308, 1, 6,15
4,181, 6
8,49769377.9261153,7056.14998952482, 1, 8,15,23520.4999650827, 1, 1,15
9,29910931.532859,4240.68027403489, 1, 8,15,14135.6009134496, 1, 1,15
71,33517463.4240604,0.0, 1, 1,15,42054.5337817571, 1,19,15
93,20143682.6299196,0.0, 1, 1,15,25274.3822207273, 1,19,15
125,40516539.4034528,6007.79054025102, 1, 1,15,30038.9527012551, 1,18,15
137,24350061.956655,3610.62603153247, 1, 1,15,18053.1301576624, 1,18,15
138,350560089.751281,0.0, 1, 1,15,654789.846109733,23,18,30
139,0.0,0.0, 1, 1,15,0.0, 1, 1,15
140,32.0788189350381,26.500141565392, 1, 6,60,38.3872123351571,10,18,45
141,32.1105897030145,27.9079956213118, 1,11,45,35.9854110784273,11,22,60
142,31.8455255038501,26.0667333777612, 1, 5,60,38.3475556513549,10,18,60
143,31.9621722194441,26.3146558575289, 1, 6,15,38.3629303027226,10,18,60
144,32.0139979651064,27.7137979322583, 1, 9,45,36.0527224327596,11,22,60
145,32.0622938340604,27.8135616751703, 1,11,30,36.0190667555935,11,22,60
146,105696212.768352,0.0, 1,15,60,58471.2724584357, 1, 4,60
147,2419.41796860319,0.0, 1, 1,15,2419.41796860319, 1,15,60
148,0.360081005623044,0.352480115769833,15,15,60,0.367515263016517,12, 3,22
149,64773737.3546798,0.0, 1,15,45,39802.0252040848,12, 7,15
150,3355.0018125669,0.0, 1, 1,15,3327.6609814124, 1,15,60
151,0.360291809140494,0.351551054445317,15,15,60,0.369977925147198,12, 6,60
224,31.8455255038501,26.0667333777612, 1, 5,60,38.3475556513549,10,18,60
225,43.536826633953,18.8872004179585, 1,15,15,69.6488282229838,14, 5,60
258,32.0139979651064,27.7137979322583, 1, 9,45,36.0527224327596,11,22,60
259,42.8018362650643,19.9391439104251, 1,15,15,64.343343910754,14, 5,60
260,0.0,0.0, 1, 1,15,0.0, 1, 1,15
291,0.0,0.0, 1, 1,15,0.0, 1, 1,15
322,0.0,0.0, 1, 1,15,0.0, 1, 1,15
323,0.0,0.0, 1, 1,15,0.0, 1, 1,15
324,0.0,0.0, 1, 1,15,0.0, 1, 1,15
325,0.0,0.0, 1, 1,15,0.0, 1, 1,15
408,99979424.0141854,0.0, 1, 1,15,166632.373356976, 1, 6,15
461,60086700.5173848,0.0, 1, 1,15,100144.500862308, 1, 6,15
4,212, 7
8,51754508.1231683,7056.14998952482, 1,15,15,23520.4999650827, 1, 1,15
9,31103976.2499542,4240.68027403489, 1,15,15,14135.6009134496, 1, 1,15
71,34379581.3665864,0.0, 1, 1,15,42054.5337817571, 1,19,15
93,20661807.4654445,0.0, 1, 1,15,25274.3822207273, 1,19,15
125,41742128.6736641,6007.79054025102, 1, 1,15,30038.9527012551, 1,19,15
137,25086629.6670877,3610.62603153247, 1, 1,15,18053.1301576624, 1,19,15
138,292545333.501955,0.0, 1, 1,15,490292.422462069, 9,18,30
139,0.0,0.0, 1, 1,15,0.0, 1, 1,15
140,26.4151730943485,24.2759826242028,12, 6,30,32.7893611817256, 1,14,15
141,25.6378980966731,24.5415672057944,17,22,15,32.1361623812926, 1, 1,15
142,25.6019838966666,23.9631092726067, 3,14,15,32.6822761143193, 1,13,60
143,26.0085784955076,24.1682140351493,17,21,60,32.6821606586489, 1,13,60
144,25.304500630312,23.968968609765, 3,14,15,31.8517508116103, 1, 1,15
145,25.4711993634925,24.2740349822084,17,21,60,31.9939565964514, 1, 1,15
146,23074492.124783,0.0, 1,14, 2,38172.5260642928, 1, 1,15
147,23527044.3235388,0.0, 1, 1,15,51339.0384888442,30,14,45
148,0.350064201750999,0.341213714178653,20,15,60,0.359215643744055, 1, 1,60
149,12579080.8308734,0.0, 1,14, 2,26172.4005172829, 1, 3,60
150,13988748.6802746,0.0, 1, 1,15,29894.2741453934,31,15,60
151,0.349715870377431,0.341208196313702,20,15,60,0.361020000913938, 1, 3,60
224,25.6019838966666,23.3770026258035,27,14, 3,32.6822761143193, 1,13,60
225,72.905150252116,51.2754756059478,12,13,60,90.9641638600562, 2,14, 3
258,25.304500630312,23.6002091519278,10,14, 3,31.8517508116103, 1, 1,15
259,74.2863982276031,55.5664479819734, 1, 1,15,90.8387868780723, 2,14, 1
260,0.0,0.0, 1, 1,15,0.0, 1, 1,15
291,339579304.36856,0.0, 1, 1,15,1054896.20808935, 1,14,45
322,2.420295004412765E-006,0.0, 1, 1,15,1.405851435265504E-007, 1,14,45
323,0.0,0.0, 1, 1,15,0.0, 1, 1,15
324,124145237.523425,0.0, 1, 1,15,628075.008863824, 1,14,45
325,7.143421854038934E-007,0.0, 1, 1,15,5.965148375253193E-008, 1,15,45
408,103312071.481325,0.0, 1, 1,15,166632.373356976, 1, 6,15
461,62089590.5346309,0.0, 1, 1,15,100144.500862308, 1, 6,15
4,243, 8
8,51378180.1237269,7056.14998952482, 1, 8,15,23520.4999650827, 1, 1,15
9,30877806.635339,4240.68027403489, 1, 8,15,14135.6009134496, 1, 1,15
71,34673963.1030587,0.0, 1, 1,15,42054.5337817571, 1,19,15
93,20838728.1409896,0.0, 1, 1,15,25274.3822207273, 1,19,15
125,41886315.6466301,6007.79054025102, 1, 1,15,30038.9527012551, 1,18,15
137,25173284.6918444,3610.62603153247, 1, 1,15,18053.1301576624, 1,18,15
138,293022304.891846,0.0, 1, 1,15,401393.762842813, 6,18,30
139,0.0,0.0, 1, 1,15,0.0, 1, 1,15
140,26.3973153796788,23.2269362673372,26, 7,15,30.3076298668517, 7,14,15
141,25.5313226574404,24.4161434460211,26, 8,15,27.2926668604608, 7,14,15
142,25.5769514675414,23.0390471544589,26, 6,60,30.4851773686639, 7,13,60
143,25.9871334236101,23.1333311784158,26, 6,60,30.3344434376599, 7,13,60
144,25.2099865483539,23.9447951937425,25,14,15,27.5876957324111, 7,13,60
145,25.3706546028972,24.3152431802644,26,21,60,27.4094489841334, 7,13,60
146,23002552.3717154,0.0, 1,14, 1,29523.2245834124,28, 6,60
147,25204866.2694791,0.0, 1, 1,15,52392.2647464969, 7,16,15
148,0.349465307220492,0.338797937407057, 7,15,60,0.356574316699588,28, 6,60
149,12396348.9292702,0.0, 1, 1,15,19627.181874097,26, 6,60
150,15188106.8771342,0.0, 1, 1,30,31151.3490737613, 7,15,60
151,0.349037818555474,0.338791168898784, 7,15,60,0.357556292447758,28, 6,60
224,25.5769514675414,23.0390471544589,26, 6,60,30.4851773686639, 7,13,60
225,71.7426070162261,50.0418030782752,30,13,60,92.8276696264074, 2, 5,60
258,25.2099865483539,23.5735128031335, 7,14, 3,27.5876957324111, 7,13,60
259,73.4096230949448,55.5160728611581,27,22,30,93.7630428631308, 2, 5,60
260,0.0,0.0, 1, 1,15,0.0, 1, 1,15
291,342932878.218778,0.0, 1, 1,15,728198.913613658, 8,14, 1
322,2.841417970752705E-006,0.0, 1, 1,15,7.530616130679846E-008, 8,14,45
323,0.0,0.0, 1, 1,15,0.0, 1, 1,15
324,122097328.866771,0.0, 1, 1,15,278979.898489365, 7,14, 1
325,5.876686413687691E-007,0.0, 1, 1,15,2.847002633643569E-008, 5,14,60
408,103312071.481325,0.0, 1, 1,15,166632.373356976, 1, 6,15
461,62089590.5346309,0.0, 1, 1,15,100144.500862308, 1, 6,15
4,273, 9
8,49957541.9258359,7056.14998952482, 1, 8,15,23520.4999650827, 1, 1,15
9,30024016.3401666,4240.68027403489, 1, 8,15,14135.6009134496, 1, 1,15
71,33370272.5558242,0.0, 1, 1,15,42054.5337817571, 1,19,15
93,20055222.2921471,0.0, 1, 1,15,25274.3822207273, 1,19,15
125,40444445.9169698,6007.79054025102, 1, 1,15,30038.9527012551, 1,18,15
137,24306734.4442767,3610.62603153247, 1, 1,15,18053.1301576624, 1,18,15
138,223837319.979332,0.0, 1, 1,15,280258.966591641,12,12,30
139,0.0,0.0, 1, 1,15,0.0, 1, 1,15
140,24.9316512369526,22.4358919906168,30, 7,30,28.2107144677564, 8,14,15
141,24.7898467453744,23.8687794579238,30, 8,60,25.9639338493781, 8,14,15
142,24.4079000573911,22.2061734374818,30, 7,30,28.2414410966966, 8,13,60
143,24.6697756471719,22.3210327140493,30, 7,30,28.1687755329777, 8,13,60
144,24.5958449709538,23.7770780430061,30, 7,60,26.175506245754, 8,13,60
145,24.6928458581641,23.8370618976636,30, 7,60,26.0463261918009, 8,13,60
146,41961918.2567433,0.0, 1,14, 1,47082.7437328729,15,24,60
147,2920910.45511119,0.0, 1, 1,15,28372.7857021669,20,18,60
148,0.352979034687651,0.342251508277076, 6,15,60,0.361035757655591,30,24,60
149,26309503.7834678,0.0, 1,12,45,28905.1553949291,15,24,60
150,1752898.97673903,0.0, 1, 1,15,17464.697281267,20,18,60
151,0.353206399172935,0.342255239160125, 6,15,60,0.362186267763092,30,24,60
224,24.4079000573911,22.2061734374818,30, 7,30,28.2414410966966, 8,13,60
225,63.1894397585209,35.7932584824186,16,13,60,88.4004703469972, 9, 6,60
258,24.5958449709538,23.6389497484346, 1,14, 3,26.175506245754, 8,13,60
259,62.4915343961659,37.681332090146,16,22,30,85.7671111727085, 9, 6,60
260,0.0,0.0, 1, 1,15,0.0, 1, 1,15
291,164938281.726277,0.0, 1, 1,15,467406.372128937, 8,14,45
322,3.024964157256298E-006,0.0, 1, 1,15,3.110471880063415E-008, 6,17,45
323,0.0,0.0, 1, 1,15,0.0, 1, 1,15
324,57856987.7539375,0.0, 1, 1,15,162893.151744657, 8,14,45
325,1.174978631216358E-006,0.0, 1, 1,15,1.186890585813671E-008, 9,14,60
408,99979424.0141854,0.0, 1, 1,15,166632.373356976, 1, 6,15
461,60086700.5173848,0.0, 1, 1,15,100144.500862308, 1, 6,15
4,304,10
8,51566344.1234476,7056.14998952482, 1,15,15,23520.4999650827, 1, 1,15
9,30990891.4426466,4240.68027403489, 1,15,15,14135.6009134496, 1, 1,15
71,34526772.2348225,0.0, 1, 1,15,42054.5337817571, 1,19,15
93,20750267.8032171,0.0, 1, 1,15,25274.3822207273, 1,19,15
125,41814222.1601471,6007.79054025102, 1, 1,15,30038.9527012551, 1,19,15
137,25129957.1794661,3610.62603153247, 1, 1,15,18053.1301576624, 1,19,15
138,178031126.631261,0.0, 1, 1,15,264374.875111926,10,12,30
139,0.0,0.0, 1, 1,15,0.0, 1, 1,15
140,22.3419033595806,18.4915540441571,24, 7,30,27.036313470217, 7,16,30
141,23.0332894259217,20.1998978684703,25,10,30,26.6641469062194, 7,22,60
142,22.3986898427553,19.9999999999999,24, 3,30,27.0334453863151, 7,19,45
143,22.3702966011679,19.2457770220785,24, 7,30,26.9832917357047, 7,16,15
144,23.0615589946213,20.,31,13,15,26.9828936836932, 7,22,60
145,23.0474242102715,20.1126948730333,25,11,30,26.8235202949563, 7,22,60
146,77485421.9396625,0.0,14,18,30,55039.3198078056,24, 3,60
147,47597.4682676459,0.0, 1, 1,15,14146.0331092581,14,18,60
148,0.358345695758382,0.350083574922924,22,15,60,0.36913747358034,24, 6,60
149,50712518.1464001,0.0,14,18,30,34825.3238297807,15,24,60
150,33056.6763994559,0.0, 1, 1,15,9015.76575296458,14,18,60
151,0.359152223163624,0.348811023988565,22,15,60,0.369794519868779,24, 6,60
224,22.3986898427553,19.9999999999999,24, 3,30,27.0334453863151, 7,19,45
225,44.1708328983488,19.518061176242,19,15,45,70.4345643256788,28,23,45
258,23.0615589946213,20.,31,13,15,26.9828936836932, 7,22,60
259,42.6524343369962,19.5852934092053,19,15,30,66.2503744078128,28,24,45
260,26749908.2791376,0.0, 1, 1,15,151070.018317023,24, 6,60
291,0.0,0.0, 1, 1,15,0.0, 1, 1,15
322,26749908.2791385,0.0, 1, 1,15,151070.018317024,24, 6,60
323,3612.4166208191,0.0, 1, 1,15,1591.56669627049,31,12,30
324,0.0,0.0, 1, 1,15,0.0, 1, 1,15
325,3612.41662081916,0.0, 1, 1,15,1591.56669627049,31,12,30
408,103312071.481325,0.0, 1, 1,15,166632.373356976, 1, 6,15
461,62089590.5346309,0.0, 1, 1,15,100144.500862308, 1, 6,15
4,334,11
8,49769377.9261153,7056.14998952482, 1, 9,15,23520.4999650827, 1, 1,15
9,29910931.532859,4240.68027403489, 1, 9,15,14135.6009134496, 1, 1,15
71,33517463.4240604,0.0, 1, 1,15,42054.5337817571, 1,20,15
93,20143682.6299196,0.0, 1, 1,15,25274.3822207273, 1,20,15
125,40516539.4034528,6007.79054025102, 1, 1,15,30038.9527012551, 1,19,15
137,24350061.956655,3610.62603153247, 1, 1,15,18053.1301576624, 1,19,15
138,131590225.593787,0.0, 1, 1,15,201743.480783664,15,12,30
139,0.0,0.0, 1, 1,15,0.0, 1, 1,15
140,19.1147618174884,17.4720048126738,27, 7,60,21.8063779649228, 7,16,30
141,20.0797919418673,19.541867598887,27, 7,60,21.7361812756635, 7,24,30
142,20.0915504551839,19.9999999999998,10, 2,15,21.8989193728391, 7,19,45
143,19.6031561363362,18.7360024063369,27, 7,60,21.8408223875805, 7,16,30
144,20.2051588997816,19.9999999999999,12, 5,15,22.1167326735667, 7,23,60
145,20.1424754208245,19.7709337994435,27, 7,60,21.9246709074671, 7,23,60
146,115586654.814382,2886.20540635632, 7,13,60,81297.0883248902,30,24,60
147,0.0,0.0, 1, 1,15,0.0, 1, 1,15
148,0.365116589166128,0.350673074789759, 6,15,60,0.380664090110345,23, 8,60
149,70066767.6742435,1176.59623658741, 7,13,60,47776.9851444118,23, 7,60
150,0.0,0.0, 1, 1,15,0.0, 1, 1,15
151,0.365256724487406,0.349821357434959, 6,15,60,0.380673517019138,23, 8,60
224,20.0915504551839,19.9999999999998,10, 2,15,21.8989193728391, 7,19,45
225,37.1605127624344,15.9757360412195,23,14,30,62.3389732594407,19,12,15
258,20.2051588997816,19.9999999999999,12, 5,15,22.1167326735667, 7,23,60
259,36.8565755544765,15.4232045133342,23,13,30,62.0410960203245,19,12,45
260,283109838.051143,0.0, 1,12,30,299218.040092987,27, 6,60
291,0.0,0.0, 1, 1,15,0.0, 1, 1,15
322,283109838.05115,0.0, 1,12,30,299218.040093005,27, 6,60
323,31087036.5790691,0.0, 1, 1,15,46834.7982358244,23, 6,60
324,0.0,0.0, 1, 1,15,0.0, 1, 1,15
325,31087036.5790701,0.0, 1, 1,15,46834.7982358244,23, 6,60
408,99979424.0141854,0.0, 1, 1,15,166632.373356976, 1, 7,15
461,60086700.5173848,0.0, 1, 1,15,100144.500862308, 1, 7,15
4,365,12
8,51754508.1231683,7056.14998952482, 1, 9,15,23520.4999650827, 1, 1,15
9,31103976.2499542,4240.68027403489, 1, 9,15,14135.6009134496, 1, 1,15
71,34379581.3665864,0.0, 1, 1,15,42054.5337817571, 1,20,15
93,20661807.4654445,0.0, 1, 1,15,25274.3822207273, 1,20,15
125,41742128.6736641,6007.79054025102, 1, 1,15,30038.9527012551, 1,19,15
137,25086629.6670877,3610.62603153247, 1, 1,15,18053.1301576624, 1,19,15
138,122724439.417395,0.0, 1, 1,15,190713.710687001, 3,12,30
139,0.0,0.0, 1, 1,15,0.0, 1, 1,15
140,18.2778535367862,17.1094149979114,16, 8,30,19.8076686300839,29,15,30
141,19.7025532648344,19.4152183937655,16, 8,60,20.0540529359522,29,23,30
142,20.,19.9999999999997,15, 9,30,20.0000000000002,18, 5,60
143,19.1389267683931,18.5547074989557,16, 8,30,19.903834315042,29,15,30
144,20.003081895282,19.9999999999999,18, 6,15,20.2378288431728,29,20,45
145,19.8528175800582,19.7076091968827,16, 8,60,20.1166322366843,29,20,60
146,194862479.230338,28220.0228972821,11,15,60,110745.481427103,31, 9,60
147,0.0,0.0, 1, 1,15,0.0, 1, 1,15
148,0.376014913024414,0.361261260982326,29,15,60,0.394153944500734,31,24,60
149,117099511.667251,17182.6266017509,11,15,60,66312.0478912706,31, 9,60
150,0.0,0.0, 1, 1,15,0.0, 1, 1,15
151,0.376018961097289,0.361262287085144,29,15,60,0.394152189777239,31,24,60
224,20.,19.9999999999997,15, 9,30,20.0000000000002,18, 5,60
225,20.2978292151555,7.92088667591326,16,19,60,40.2075308368356,25, 4,30
258,20.003081895282,19.9999999999999,18, 6,15,20.2378288431728,29,20,45
259,20.2786424674247,7.44133194033972,16,19,60,40.8301219127206,25, 4,15
260,588450725.931237,37970.1983401921,29,15,45,382644.933716368,18, 6,60
291,0.0,0.0, 1, 1,15,0.0, 1, 1,15
322,588450725.931249,37970.1983401938,29,15,45,382644.933716377,18, 6,60
323,96204525.9091313,0.0, 7,20,15,72073.126576221,17, 7,30
324,0.0,0.0, 1, 1,15,0.0, 1, 1,15
325,96204525.9091343,0.0, 7,20,15,72073.1265762216,17, 7,30
408,103312071.481325,0.0, 1, 1,15,166632.373356976, 1, 7,15
461,62089590.5346309,0.0, 1, 1,15,100144.500862308, 1, 7,15
End of Data
 Number of Records Written=         384
