Program Version,EnergyPlus, Version 8.4.0-09f5359d8a, YMD=2023.08.02 14:39
1,5,Environment Title[],Latitude[deg],Longitude[deg],Time Zone[],Elevation[m]
2,6,Day of Simulation[],Month[],Day of Month[],DST Indicator[1=yes 0=no],Hour[],StartMinute[],EndMinute[],DayType
3,3,Cumulative Day of Simulation[],Month[],Day of Month[],DST Indicator[1=yes 0=no],DayType  ! When Daily Report Variables Requested
4,2,Cumulative Days of Simulation[],Month[]  ! When Monthly Report Variables Requested
5,1,Cumulative Days of Simulation[] ! When Run Period Report Variables Requested
8,9,PERIM,Zone People Total Heating Energy [J] !Monthly  [Value,Min,Day,Hour,Minute,Max,Day,Hour,Minute]
9,9,CORE,Zone People Total Heating Energy [J] !Monthly  [Value,Min,Day,Hour,Minute,Max,Day,Hour,Minute]
71,9,PERIM,Zone Lights Electric Energy [J] !Monthly  [Value,Min,Day,Hour,Minute,Max,Day,Hour,Minute]
93,9,CORE,Zone Lights Electric Energy [J] !Monthly  [Value,Min,Day,Hour,Minute,Max,Day,Hour,Minute]
125,9,PERIM,Zone Electric Equipment Electric Energy [J] !Monthly  [Value,Min,Day,Hour,Minute,Max,Day,Hour,Minute]
137,9,CORE,Zone Electric Equipment Electric Energy [J] !Monthly  [Value,Min,Day,Hour,Minute,Max,Day,Hour,Minute]
138,9,PERIM,Zone Windows Total Transmitted Solar Radiation Energy [J] !Monthly  [Value,Min,Day,Hour,Minute,Max,Day,Hour,Minute]
139,9,CORE,Zone Windows Total Transmitted Solar Radiation Energy [J] !Monthly  [Value,Min,Day,Hour,Minute,Max,Day,Hour,Minute]
140,9,PERIM,Zone Mean Radiant Temperature [C] !Monthly [Value,Min,Day,Hour,Minute,Max,Day,Hour,Minute]
141,9,CORE,Zone Mean Radiant Temperature [C] !Monthly [Value,Min,Day,Hour,Minute,Max,Day,Hour,Minute]
142,9,PERIM,Zone Mean Air Temperature [C] !Monthly [Value,Min,Day,Hour,Minute,Max,Day,Hour,Minute]
143,9,PERIM,Zone Operative Temperature [C] !Monthly [Value,Min,Day,Hour,Minute,Max,Day,Hour,Minute]
144,9,CORE,Zone Mean Air Temperature [C] !Monthly [Value,Min,Day,Hour,Minute,Max,Day,Hour,Minute]
145,9,CORE,Zone Operative Temperature [C] !Monthly [Value,Min,Day,Hour,Minute,Max,Day,Hour,Minute]
146,9,PERIM,Zone Infiltration Total Heat Loss Energy [J] !Monthly  [Value,Min,Day,Hour,Minute,Max,Day,Hour,Minute]
147,9,PERIM,Zone Infiltration Total Heat Gain Energy [J] !Monthly  [Value,Min,Day,Hour,Minute,Max,Day,Hour,Minute]
148,9,PERIM,Zone Infiltration Air Change Rate [ach] !Monthly [Value,Min,Day,Hour,Minute,Max,Day,Hour,Minute]
149,9,CORE,Zone Infiltration Total Heat Loss Energy [J] !Monthly  [Value,Min,Day,Hour,Minute,Max,Day,Hour,Minute]
150,9,CORE,Zone Infiltration Total Heat Gain Energy [J] !Monthly  [Value,Min,Day,Hour,Minute,Max,Day,Hour,Minute]
151,9,CORE,Zone Infiltration Air Change Rate [ach] !Monthly [Value,Min,Day,Hour,Minute,Max,Day,Hour,Minute]
224,9,PERIM,Zone Air Temperature [C] !Monthly [Value,Min,Day,Hour,Minute,Max,Day,Hour,Minute]
225,9,PERIM,Zone Air Relative Humidity [%] !Monthly [Value,Min,Day,Hour,Minute,Max,Day,Hour,Minute]
258,9,CORE,Zone Air Temperature [C] !Monthly [Value,Min,Day,Hour,Minute,Max,Day,Hour,Minute]
259,9,CORE,Zone Air Relative Humidity [%] !Monthly [Value,Min,Day,Hour,Minute,Max,Day,Hour,Minute]
260,9,PERIM IDEAL LOADS AIR,Zone Ideal Loads Supply Air Total Heating Energy [J] !Monthly  [Value,Min,Day,Hour,Minute,Max,Day,Hour,Minute]
291,9,PERIM IDEAL LOADS AIR,Zone Ideal Loads Supply Air Total Cooling Energy [J] !Monthly  [Value,Min,Day,Hour,Minute,Max,Day,Hour,Minute]
322,9,PERIM IDEAL LOADS AIR,Zone Ideal Loads Zone Total Heating Energy [J] !Monthly  [Value,Min,Day,Hour,Minute,Max,Day,Hour,Minute]
323,9,CORE IDEAL LOADS AIR,Zone Ideal Loads Supply Air Total Heating Energy [J] !Monthly  [Value,Min,Day,Hour,Minute,Max,Day,Hour,Minute]
324,9,CORE IDEAL LOADS AIR,Zone Ideal Loads Supply Air Total Cooling Energy [J] !Monthly  [Value,Min,Day,Hour,Minute,Max,Day,Hour,Minute]
325,9,CORE IDEAL LOADS AIR,Zone Ideal Loads Zone Total Heating Energy [J] !Monthly  [Value,Min,Day,Hour,Minute,Max,Day,Hour,Minute]
408,9,DHW PERIM,Water Use Equipment Heating Energy [J] !Monthly  [Value,Min,Day,Hour,Minute,Max,Day,Hour,Minute]
461,9,DHW CORE,Water Use Equipment Heating Energy [J] !Monthly  [Value,Min,Day,Hour,Minute,Max,Day,Hour,Minute]
End of Data Dictionary
1,ARCHSIM,  37.57, 126.97,   9.00,  87.10
4,31, 1
8,51566344.117899,7056.14998876564, 1,16,15,23520.4999625521, 1, 1,15
9,30990891.4345637,4240.6802729288, 1,16,15,14135.6009097627, 1, 1,15
71,34526772.2311078,0.0, 1, 1,15,42054.5337772324, 1,20,15
93,20750267.7978048,0.0, 1, 1,15,25274.382214135, 1,20,15
125,41814222.1556485,6007.79053960463, 1, 1,15,30038.9526980232, 1,20,15
137,25129957.1729113,3610.62603059072, 1, 1,15,18053.1301529536, 1,20,15
138,79978424.9246026,0.0, 1, 1,15,284726.77190288,14,13,15
139,0.0,0.0, 1, 1,15,0.0, 1, 1,15
140,18.1038165880546,17.1570294564738,14, 8,45,19.4618902971898, 8,13,15
141,19.6468334089334,19.4188195315971,15, 8,60,19.9330952399991, 6,23,60
142,20.,19.9999999999998,21, 6,15,20.0000000000002,13, 6,60
143,19.0519082940273,18.5785147282369,14, 8,45,19.7309451485949, 8,13,15
144,20.000190658218,19.9999999999999,15, 3,45,20.0594859888128, 6,20,45
145,19.8235120335757,19.7094097657986,15, 8,60,19.9665476199996, 6,23,60
146,212955851.951193,25745.0775931132, 6,15,60,109420.570842669,23, 6,60
147,0.0,0.0, 1, 1,15,0.0, 1, 1,15
148,0.378681833519405,0.361545062584999, 6,15,60,0.394084666314026,23, 6,60
149,127913011.992017,15431.1208543436, 6,15,60,65828.3025682673,23, 6,60
150,0.0,0.0, 1, 1,15,0.0, 1, 1,15
151,0.378682562709136,0.361545895124855, 6,15,60,0.394083260982269,23, 6,60
224,20.,19.9999999999998,21, 6,15,20.0000000000002,13, 6,60
225,17.6775185082433,6.91572213907843,14,19,60,34.9033236104775, 2,22,45
258,20.000190658218,19.9999999999999,15, 3,45,20.0594859888128, 6,20,45
259,17.639670298611,6.27336462474496,14,19,60,35.278927498003, 2,22,30
260,657425117.302449,44939.6149661608, 8,13,15,378387.272018856,23, 6,45
291,0.0,0.0, 1, 1,15,0.0, 1, 1,15
322,657425117.302462,44939.6149661616, 8,13,15,378387.272018861,23, 6,45
323,113974441.261498,0.0, 6,20,15,75395.4738476562,23, 6,60
324,0.0,0.0, 1, 1,15,0.0, 1, 1,15
325,113974441.261501,0.0, 6,20,15,75395.4738476574,23, 6,60
408,103312071.47021,0.0, 1, 1,15,166632.373339048, 1, 7,15
461,62089590.5184365,0.0, 1, 1,15,100144.500836188, 1, 7,15
4,59, 2
8,46551773.525883,7056.14998876564, 1, 9,15,23520.4999625521, 1, 1,15
9,27977181.3206023,4240.6802729288, 1, 9,15,14135.6009097627, 1, 1,15
71,31204464.0627065,0.0, 1, 1,15,42054.5337772324, 1,20,15
93,18753591.6028881,0.0, 1, 1,15,25274.382214135, 1,20,15
125,37776986.913034,6007.79053960463, 1, 1,15,30038.9526980232, 1,19,15
137,22703616.4803544,3610.62603059072, 1, 1,15,18053.1301529536, 1,19,15
138,131211113.410836,0.0, 1, 1,15,908226.212872092,17,14,45
139,0.0,0.0, 1, 1,15,0.0, 1, 1,15
140,18.6165852943961,17.3901297123274, 8, 6,60,22.0492841348002,24,14,60
141,19.8032367239512,19.5060368434194, 8, 6,60,20.526990166876,23,23,60
142,20.0338012052169,19.9999999999998, 9,11,45,21.9412102787353,24,14,60
143,19.3251932498065,18.6950648561637, 8, 6,60,21.9952472067678,24,14,60
144,20.0253392337434,19.9999999999999,15, 1,15,20.7313034550267,23,20,45
145,19.9142879788473,19.7530184217096, 8, 6,60,20.5774832614049,23,20,60
146,168327295.798678,9562.87251639708,24,14,20,100533.056402493, 8, 6,60
147,0.0,0.0, 1, 1,15,0.0, 1, 1,15
148,0.374893544223621,0.359272405274378,23,15,60,0.390334959735565, 8, 6,60
149,101153552.457286,5138.64182541508,24,14,45,60370.8939402673, 8, 6,60
150,0.0,0.0, 1, 1,15,0.0, 1, 1,15
151,0.374883366098697,0.358064759369787,23,15,60,0.390335950079915, 8, 6,60
224,20.0338012052169,19.9999999999998, 9,11,45,22.0870709174351,24,14,45
225,18.4593976111623,6.52905979213938, 9,17,60,37.9143711921758, 3,22,15
258,20.0253392337434,19.9999999999999,15, 1,15,20.7313034550267,23,20,45
259,18.4767026926878,6.13457926381446, 9,17,60,38.3586555573693, 3,21,60
260,444005473.30379,0.0,11,14,45,342637.325342729, 8, 6,60
291,0.0,0.0, 1, 1,15,0.0, 1, 1,15
322,444005473.303799,0.0,11,14,45,342637.325342743, 8, 6,60
323,74681208.4112636,0.0, 6,19,15,66357.1229219719, 8, 6,60
324,0.0,0.0, 1, 1,15,0.0, 1, 1,15
325,74681208.4112659,0.0, 6,19,15,66357.1229219766, 8, 6,60
408,93314129.069867,0.0, 1, 1,15,166632.373339048, 1, 7,15
461,56080920.4682653,0.0, 1, 1,15,100144.500836188, 1, 7,15
4,90, 3
8,51378180.1181985,7056.14998876564, 1, 9,15,23520.4999625521, 1, 1,15
9,30877806.6272856,4240.6802729288, 1, 9,15,14135.6009097627, 1, 1,15
71,34673963.0993282,0.0, 1, 1,15,42054.5337772324, 1,20,15
93,20838728.1355543,0.0, 1, 1,15,25274.382214135, 1,20,15
125,41886315.6421237,6007.79053960463, 1, 1,15,30038.9526980232, 1,19,15
137,25173284.6852784,3610.62603059072, 1, 1,15,18053.1301529536, 1,19,15
138,188510698.456281,0.0, 1, 1,15,857033.135844919, 6,14,30
139,0.0,0.0, 1, 1,15,0.0, 1, 1,15
140,19.3919065275033,17.6912628180747, 6, 7,30,22.945869406515,19,14,45
141,20.1283087823835,19.6113046915988, 8, 7,60,21.4157606037285,19,23,60
142,20.1437859641186,19.9999999999998,13, 5,45,23.0088829251997,19,14,45
143,19.7678462458109,18.8456314090373, 6, 7,30,22.9773761658574,19,14,45
144,20.1519627967365,19.9999999999999, 7, 5,15,21.6752442476255,19,23,60
145,20.14013578956,19.8056523457994, 8, 7,60,21.545502425677,19,23,60
146,137337635.883703,5063.49156780424,19,19,60,82187.9693304788, 8, 6,60
147,0.0,0.0, 1, 1,15,0.0, 1, 1,15
148,0.367806632839479,0.35504839112248,19,15,60,0.383347697482577, 8, 6,60
149,82658698.7977196,1949.79174399782,19,19,60,49657.7257692882, 8, 6,60
150,0.0,0.0, 1, 1,15,0.0, 1, 1,15
151,0.367818625745764,0.35289778845221,19,15,60,0.38334221084084, 8, 6,60
224,20.1437859641186,19.9999999999998,13, 5,45,23.1397051333143,19,14,45
225,23.4885603440014,8.75714694305533, 7,17,60,41.5237247318155,31,19,30
258,20.1519627967365,19.9999999999999, 7, 5,15,21.6752442476255,19,23,60
259,23.4786909883301,8.50774369342338, 7,17,60,40.5575105989708,31,17,60
260,256513345.168706,0.0, 2,14,22,279357.242431525, 6, 6,60
291,0.0,0.0, 1, 1,15,0.0, 1, 1,15
322,256513345.168712,0.0, 2,14,22,279357.242431525, 6, 6,60
323,32055595.9454705,0.0, 1,20,15,50476.4441977839, 8, 6,60
324,0.0,0.0, 1, 1,15,0.0, 1, 1,15
325,32055597.1348425,0.0, 1,20,15,50476.4441977842, 8, 6,60
408,103312071.47021,0.0, 1, 1,15,166632.373339048, 1, 7,15
461,62089590.5184365,0.0, 1, 1,15,100144.500836188, 1, 7,15
4,120, 4
8,50145705.9201609,7056.14998876564, 1,15,15,23520.4999625521, 1, 1,15
9,30137101.139614,4240.6802729288, 1,15,15,14135.6009097627, 1, 1,15
71,33223081.6840136,0.0, 1, 1,15,42054.5337772324, 1,19,15
93,19966761.9491666,0.0, 1, 1,15,25274.382214135, 1,19,15
125,40372352.4261433,6007.79053960463, 1, 1,15,30038.9526980232, 1,19,15
137,24263406.9255695,3610.62603059072, 1, 1,15,18053.1301529536, 1,19,15
138,163500568.941578,0.0, 1, 1,15,672106.73773402, 2,14,15
139,0.0,0.0, 1, 1,15,0.0, 1, 1,15
140,21.0520776403158,18.0078569571179, 1, 7,30,26.0484606375407,11,16,60
141,21.5896477412209,19.758182153464, 1, 8,60,25.481814501128,12,22,60
142,21.3313506218458,19.9999999999999, 1, 7,45,26.5346869929066,11,18,45
143,21.1917141310808,19.0039284785589, 1, 7,30,26.2594039943843,11,18,30
144,21.60321687308,20.,26, 5,45,25.7752446810102,11,22,60
145,21.5964323071505,19.879091076732, 1, 8,60,25.6180946459821,11,22,60
146,90588476.7118045,0.0, 7,19,60,66635.9065285976, 1, 1,60
147,125533.453176831,0.0, 1, 1,15,18340.8826889084,19,19,60
148,0.361034624789618,0.347604703575988,19,12,60,0.372437320264175, 1, 4,60
149,56073325.2671229,0.0, 7,19,45,39094.5971560655, 1, 1,60
150,138764.432822716,0.0, 1, 1,15,13382.7646327167,19,19,60
151,0.361372675422279,0.346900500237002,19,12,60,0.372457380011151, 1, 4,60
224,21.3313506218458,19.9999999999999, 1, 7,45,26.5346869929066,11,18,45
225,36.1684021538999,17.7823402431105,18,17,30,68.0205834261142,20,23,30
258,21.60321687308,20.,26, 5,45,25.7752446810102,11,22,60
259,35.4409480063682,18.6422122404932,18,18,15,60.6994931509463,25, 1,45
260,86157331.8007681,0.0, 1,13,60,226358.559024086, 1, 7,30
291,0.0,0.0, 1, 1,15,0.0, 1, 1,15
322,86157331.8007707,0.0, 1,13,60,226358.559024099, 1, 7,30
323,6109246.40837164,0.0, 1,19,15,28980.0114667209, 1, 7,60
324,0.0,0.0, 1, 1,15,0.0, 1, 1,15
325,6109246.40837187,0.0, 1,19,15,28980.0114667213, 1, 7,60
408,99979424.003429,0.0, 1, 1,15,166632.373339048, 1, 6,15
461,60086700.5017128,0.0, 1, 1,15,100144.500836188, 1, 6,15
4,151, 5
8,51378180.1181986,7056.14998876564, 1, 8,15,23520.4999625521, 1, 1,15
9,30877806.6272856,4240.6802729288, 1, 8,15,14135.6009097627, 1, 1,15
71,34673963.0993282,0.0, 1, 1,15,42054.5337772324, 1,19,15
93,20838728.1355543,0.0, 1, 1,15,25274.382214135, 1,19,15
125,41886315.6421237,6007.79053960463, 1, 1,15,30038.9526980232, 1,18,15
137,25173284.6852784,3610.62603059072, 1, 1,15,18053.1301529536, 1,18,15
138,171675929.437431,0.0, 1, 1,15,599220.219758562,21,14,30
139,0.0,0.0, 1, 1,15,0.0, 1, 1,15
140,24.0977027752505,18.4626340036388, 3, 7,30,30.9888097016342,26,14,30
141,24.5842711222497,20.3324519834009, 4,11,60,30.1320428548458,26,22,60
142,24.0673652242868,18.2645880950834, 3, 6,60,30.9116469523676,26,18,30
143,24.0825339997686,18.376889977286, 3, 7,30,30.8779894217379,26,14,30
144,24.633092503614,20.240744452251, 4,11,30,30.4034504530737,26,21,60
145,24.6086818129319,20.2897823131525, 4,11,30,30.2670868573839,26,22,60
146,74031927.4468942,0.0, 7,20,45,58926.2527860296,17, 5,60
147,199651.662714021,0.0, 1, 1,15,15522.1972034216,11,18,60
148,0.357448195261235,0.348165016590492,23,15,60,0.36434982149725, 6, 6,60
149,48217081.7312134,0.0, 7,15,30,37872.5914700988,17, 5,60
150,262362.986242585,0.0, 1, 1,15,11670.6639363563,11,18,60
151,0.358140567333257,0.34552229057326,23,15,60,0.366708362826426, 6, 6,60
224,24.0673652242868,18.2645880950834, 3, 6,60,30.9116469523676,26,18,30
225,45.6640773168821,22.2471823126784, 8,17,15,72.3223466626485,28,15,15
258,24.633092503614,20.240744452251, 4,11,30,30.4034504530737,26,21,60
259,44.0033394849325,24.4655931843664, 8,17,15,66.9044232237442,28,16,45
260,0.0,0.0, 1, 1,15,0.0, 1, 1,15
291,0.0,0.0, 1, 1,15,0.0, 1, 1,15
322,0.0,0.0, 1, 1,15,0.0, 1, 1,15
323,0.0,0.0, 1, 1,15,0.0, 1, 1,15
324,0.0,0.0, 1, 1,15,0.0, 1, 1,15
325,0.0,0.0, 1, 1,15,0.0, 1, 1,15
408,103312071.47021,0.0, 1, 1,15,166632.373339048, 1, 6,15
461,62089590.5184365,0.0, 1, 1,15,100144.500836188, 1, 6,15
4,181, 6
8,49769377.92076,7056.14998876564, 1, 8,15,23520.4999625521, 1, 1,15
9,29910931.5250578,4240.6802729288, 1, 8,15,14135.6009097627, 1, 1,15
71,33517463.4204543,0.0, 1, 1,15,42054.5337772324, 1,19,15
93,20143682.6246656,0.0, 1, 1,15,25274.382214135, 1,19,15
125,40516539.3990938,6007.79053960463, 1, 1,15,30038.9526980232, 1,18,15
137,24350061.9503037,3610.62603059072, 1, 1,15,18053.1301529536, 1,18,15
138,177058152.932492,0.0, 1, 1,15,599181.876249521, 1,14,30
139,0.0,0.0, 1, 1,15,0.0, 1, 1,15
140,29.0121507618302,24.286965543775, 1, 7,30,33.6932477673441,10,14,45
141,29.3216170466015,25.5019167789727, 1,11,30,32.8831690661437,11,22,60
142,28.9728925583516,23.9700782413871, 1, 5,60,34.0358232944018,10,19,30
143,28.9925216600909,24.1715479940279, 1, 5,60,33.7809153320319,10,19,30
144,29.3608915201728,25.3920588438202, 1, 9,45,33.1298686095006,11,22,60
145,29.3412542833871,25.4621716760592, 1, 9,45,33.0065188378221,11,22,60
146,78091796.3555862,0.0, 1,15,45,50136.9006866742, 1, 4,60
147,8509.4551935944,0.0, 1, 1,15,6843.42237372474, 1,15,60
148,0.356914177016659,0.350134057825389,15,15,60,0.364146592967612, 1, 3,60
149,49438309.8401407,0.0, 1,15,30,33650.6975972735,12, 7,15
150,13614.391280761,0.0, 1, 1,15,6912.51450644942, 1,15,60
151,0.357380050743935,0.348824265019437,18,15,60,0.366903936987443,12, 6,60
224,28.9728925583516,23.9700782413871, 1, 5,60,34.0358232944018,10,19,30
225,49.9043943130044,20.2783114119819, 1,14,60,77.2308932367324,14, 4,30
258,29.3608915201728,25.3920588438202, 1, 9,45,33.1298686095006,11,22,60
259,48.6250814441533,22.3056339057309, 1,15,15,72.2543750329966,14, 5,60
260,0.0,0.0, 1, 1,15,0.0, 1, 1,15
291,0.0,0.0, 1, 1,15,0.0, 1, 1,15
322,0.0,0.0, 1, 1,15,0.0, 1, 1,15
323,0.0,0.0, 1, 1,15,0.0, 1, 1,15
324,0.0,0.0, 1, 1,15,0.0, 1, 1,15
325,0.0,0.0, 1, 1,15,0.0, 1, 1,15
408,99979424.003429,0.0, 1, 1,15,166632.373339048, 1, 6,15
461,60086700.5017128,0.0, 1, 1,15,100144.500836188, 1, 6,15
4,212, 7
8,51754508.1175994,7056.14998876564, 1,15,15,23520.4999625521, 1, 1,15
9,31103976.2418418,4240.6802729288, 1,15,15,14135.6009097627, 1, 1,15
71,34379581.3628875,0.0, 1, 1,15,42054.5337772324, 1,19,15
93,20661807.4600553,0.0, 1, 1,15,25274.382214135, 1,19,15
125,41742128.6691732,6007.79053960463, 1, 1,15,30038.9526980232, 1,19,15
137,25086629.6605442,3610.62603059072, 1, 1,15,18053.1301529536, 1,19,15
138,140426443.004195,0.0, 1, 1,15,517982.407078061, 6,14,45
139,0.0,0.0, 1, 1,15,0.0, 1, 1,15
140,25.6735257621596,23.8060340130588,12, 6,60,29.7236492742184, 1,14,15
141,25.282156871388,24.4201198478304,17,22,15,29.1934805868016, 1, 1,15
142,25.2075702937095,23.851762766403,12, 4,30,29.6395515123283, 1,13,60
143,25.4405480279346,23.8675310068743,12, 4,30,29.5356901764859, 1,13,60
144,25.0737200353762,23.960120803153,12,14,15,29.0641178710444, 1, 1,15
145,25.177938453382,24.2113033942545,17,21,60,29.128799228923, 1, 1,15
146,20581412.0268007,0.0, 1,14, 1,27806.4751416087, 1, 1,15
147,22259550.8158577,0.0, 1, 1,15,49813.8869695376,30,14,45
148,0.349789040906507,0.341395294428166,20,15,60,0.356249031400478, 1, 3,15
149,11877862.8363104,0.0, 1,14, 1,20212.1217391585, 1, 3,60
150,13364924.5423425,0.0, 1, 1,15,29195.256838191,31,15,60
151,0.349632884208459,0.341388145098022,20,15,60,0.358029627896938, 1, 3,60
224,25.2075702937095,23.5893437892227,21,14, 5,29.6395515123283, 1,13,60
225,74.7667788306222,54.4624861905542,12,13,60,92.7606572041656, 2,14, 2
258,25.0737200353762,23.6199885084106,28,14, 2,29.0641178710444, 1, 1,15
259,75.414239585096,57.9924046183814, 6,22,30,92.4084950192698, 2,14, 2
260,0.0,0.0, 1, 1,15,0.0, 1, 1,15
291,228727920.920539,0.0, 1, 1,15,697512.858599622, 1,14,45
322,1.403274296762902E-006,0.0, 1, 1,15,5.100559974380303E-008,22,14,45
323,0.0,0.0, 1, 1,15,0.0, 1, 1,15
324,98382585.6116559,0.0, 1, 1,15,362983.517939941, 1,14,45
325,3.972009007416741E-007,0.0, 1, 1,15,1.372342239847058E-008,13,15,60
408,103312071.47021,0.0, 1, 1,15,166632.373339048, 1, 6,15
461,62089590.5184365,0.0, 1, 1,15,100144.500836188, 1, 6,15
4,243, 8
8,51378180.1181985,7056.14998876564, 1, 8,15,23520.4999625521, 1, 1,15
9,30877806.6272856,4240.6802729288, 1, 8,15,14135.6009097627, 1, 1,15
71,34673963.0993282,0.0, 1, 1,15,42054.5337772324, 1,19,15
93,20838728.1355543,0.0, 1, 1,15,25274.382214135, 1,19,15
125,41886315.6421237,6007.79053960463, 1, 1,15,30038.9526980232, 1,18,15
137,25173284.6852784,3610.62603059072, 1, 1,15,18053.1301529536, 1,18,15
138,159232861.223348,0.0, 1, 1,15,629814.976876484,29,14,15
139,0.0,0.0, 1, 1,15,0.0, 1, 1,15
140,25.8509190117527,22.9756415965121,26, 7,30,29.971203998099, 7,14,15
141,25.2937426754748,24.2320560929397,26, 8,30,26.8851398779717, 7,14,15
142,25.2993293539263,22.8290171016551,26, 7,30,29.9089272789705, 7,13,60
143,25.5751241828395,22.9023293490836,26, 7,30,29.7554034277752, 7,13,60
144,25.0664252508757,23.811823714034,25,14,15,27.19977526566, 7,13,60
145,25.1800839631753,24.2134109294964,26,18,60,27.0132002779226, 7,13,60
146,21887334.7706728,0.0, 1,13,60,30047.0112406742,28, 6,60
147,24344572.268759,0.0, 1, 1,15,51895.6496003309, 7,15,60
148,0.349329389583451,0.338977052544584, 7,15,60,0.356806463413353,28, 6,60
149,12344299.2163813,0.0, 1, 1,15,19544.5459100621,26, 6,60
150,14650639.0431413,0.0, 1, 1,30,30797.1705230828, 7,15,60
151,0.349057925898045,0.338969113896149, 7,15,60,0.357568347241182,28, 6,60
224,25.2993293539263,22.8290171016551,26, 7,30,29.9089272789705, 7,13,60
225,73.0811314352241,49.7171051037723,30,13,60,94.3068403978496, 2, 5,60
258,25.0664252508757,23.5274009871154,25,14, 9,27.19977526566, 7,13,60
259,74.2255018373133,55.7056160105111,27,18,60,95.133154814779, 2, 5,60
260,0.0,0.0, 1, 1,15,0.0, 1, 1,15
291,257763444.332561,0.0, 1, 1,15,687944.208486272, 7,14, 1
322,1.930021173990326E-006,0.0, 1, 1,15,6.359073267958593E-008,24,14,45
323,0.0,0.0, 1, 1,15,0.0, 1, 1,15
324,102834149.153769,0.0, 1, 1,15,256127.924956131, 7,14, 1
325,4.383571372557071E-007,0.0, 1, 1,15,1.585931386216544E-008,17,15,45
408,103312071.47021,0.0, 1, 1,15,166632.373339048, 1, 6,15
461,62089590.5184365,0.0, 1, 1,15,100144.500836188, 1, 6,15
4,273, 9
8,49957541.9204605,7056.14998876564, 1, 8,15,23520.4999625521, 1, 1,15
9,30024016.3323359,4240.6802729288, 1, 8,15,14135.6009097627, 1, 1,15
71,33370272.5522339,0.0, 1, 1,15,42054.5337772324, 1,19,15
93,20055222.2869161,0.0, 1, 1,15,25274.382214135, 1,19,15
125,40444445.9126185,6007.79053960463, 1, 1,15,30038.9526980232, 1,18,15
137,24306734.4379366,3610.62603059072, 1, 1,15,18053.1301529536, 1,18,15
138,149897768.374003,0.0, 1, 1,15,754227.075345584,22,14,15
139,0.0,0.0, 1, 1,15,0.0, 1, 1,15
140,24.6870267955704,22.3046980022669,30, 7,30,28.626397937968, 8,14,15
141,24.6571205713133,23.6972092479955,30, 8,60,25.7341990137187, 8,14,15
142,24.2910743740001,22.0760285189945,30, 7,30,28.2978811587782, 7,13,60
143,24.4890505847853,22.1903632606307,30, 7,30,28.2137756436618, 7,13,60
144,24.5169717241417,23.6127318904622,30, 7,60,25.951582961788, 8,13,60
145,24.5870461477275,23.6720793155535,30, 7,60,25.8177237780392, 8,13,60
146,42756550.6293904,0.0, 1,14, 1,47131.0415469982,15,24,60
147,2712648.55439979,0.0, 1, 1,15,27541.2361592285,20,18,60
148,0.353037389873947,0.342436998597736, 6,15,60,0.361050114687005,30,24,60
149,26742594.7561439,0.0, 1,12,45,28770.3103681171,15,24,60
150,1620403.81800716,0.0, 1, 1,15,17192.7580720418,20,18,60
151,0.353310670066129,0.342440016232643, 6,15,60,0.3622084239954,30,24,60
224,24.2910743740001,22.0760285189945,30, 7,30,28.4009418370025, 7,13,60
225,63.8138316212314,34.600691318243,16,13,60,87.6381502035099, 9, 6,60
258,24.5169717241417,23.6127318904622,30, 7,60,25.9620712977721, 8,13,60
259,62.874174141422,37.8126757132873,16,22,30,86.1270961019271, 9, 6,45
260,0.0,0.0, 1, 1,15,0.0, 1, 1,15
291,136497981.485832,0.0, 1, 1,15,442611.077584766, 7,14,45
322,2.773717932796111E-006,0.0, 1, 1,15,4.164348865742795E-008, 6,14,45
323,0.0,0.0, 1, 1,15,0.0, 1, 1,15
324,48585585.854673,0.0, 1, 1,15,151270.809068289, 8,14,45
325,9.313960605946852E-007,0.0, 1, 1,15,9.400480394106126E-009, 9,14,60
408,99979424.003429,0.0, 1, 1,15,166632.373339048, 1, 6,15
461,60086700.5017128,0.0, 1, 1,15,100144.500836188, 1, 6,15
4,304,10
8,51566344.117899,7056.14998876564, 1,15,15,23520.4999625521, 1, 1,15
9,30990891.4345637,4240.6802729288, 1,15,15,14135.6009097627, 1, 1,15
71,34526772.2311078,0.0, 1, 1,15,42054.5337772324, 1,19,15
93,20750267.7978048,0.0, 1, 1,15,25274.382214135, 1,19,15
125,41814222.1556485,6007.79053960463, 1, 1,15,30038.9526980232, 1,19,15
137,25129957.1729113,3610.62603059072, 1, 1,15,18053.1301529536, 1,19,15
138,158389829.042369,0.0, 1, 1,15,919752.721258235,15,14,15
139,0.0,0.0, 1, 1,15,0.0, 1, 1,15
140,22.7204627370709,18.5292731623354,31, 7,30,28.0673105726711, 8,14,30
141,23.3070033032986,20.0129646541668,31,12,30,26.6344962798132, 9,22,60
142,22.7626445601054,19.9999999999999,24, 6,30,28.4311723823253, 8,14,30
143,22.7415536485881,19.2646365811677,31, 7,30,28.2492414774982, 8,14,30
144,23.3168752577013,20.,31,10,30,26.8997303365572, 8,22,60
145,23.3119392804999,20.0064823270834,31,12,30,26.7454707727515, 9,22,60
146,82776902.1070686,0.0,14,18,45,58317.6347807023,15,24,60
147,23019.626331565,0.0, 1, 1,15,10111.7479010837,14,18,60
148,0.358990868521965,0.351117357592935,22,15,60,0.369355383878318,24, 6,60
149,53225241.3538263,0.0,14,18,45,37175.2530038606,15,24,60
150,19715.5079004726,0.0, 1, 1,15,7265.32219138072,14,18,60
151,0.359668449069402,0.349566744895073,22,15,60,0.370194916588697,24, 6,60
224,22.7626445601054,19.9999999999999,24, 6,30,28.4311723823253, 8,14,30
225,43.5672582299358,17.637164203239,19,14,15,70.3994930539348,28,23,45
258,23.3168752577013,20.,31,10,30,26.8997303365572, 8,22,60
259,42.223248675616,19.406527702362,19,15,45,65.8800668440052,28,24,30
260,23455879.1446039,0.0, 1, 1,15,147481.367502019,24, 6,60
291,0.0,0.0, 1, 1,15,0.0, 1, 1,15
322,23455879.1446047,0.0, 1, 1,15,147481.367502019,24, 6,60
323,346624.300809462,0.0, 1, 1,15,11638.5570460003,31,10,15
324,0.0,0.0, 1, 1,15,0.0, 1, 1,15
325,346624.300809476,0.0, 1, 1,15,11638.5570460006,31,10,15
408,103312071.47021,0.0, 1, 1,15,166632.373339048, 1, 6,15
461,62089590.5184365,0.0, 1, 1,15,100144.500836188, 1, 6,15
4,334,11
8,49769377.92076,7056.14998876564, 1, 9,15,23520.4999625521, 1, 1,15
9,29910931.5250578,4240.6802729288, 1, 9,15,14135.6009097627, 1, 1,15
71,33517463.4204543,0.0, 1, 1,15,42054.5337772324, 1,20,15
93,20143682.6246656,0.0, 1, 1,15,25274.382214135, 1,20,15
125,40516539.3990938,6007.79053960463, 1, 1,15,30038.9526980232, 1,19,15
137,24350061.9503037,3610.62603059072, 1, 1,15,18053.1301529536, 1,19,15
138,77808892.2543682,0.0, 1, 1,15,241827.925421414, 6,14,15
139,0.0,0.0, 1, 1,15,0.0, 1, 1,15
140,18.968926732979,17.4612316503871,27, 7,60,21.2607254343409, 7,15,60
141,19.9754743996686,19.5302296166077,27, 6,60,21.5024131203411, 7,24,60
142,20.0590194834615,19.9999999999998,27, 4,45,21.6219157637828, 7,20,45
143,19.5139731082203,18.7306158251936,27, 7,60,21.3554206863132, 7,15,45
144,20.143812616671,19.9999999999999,23, 2,60,21.8810413713262, 7,23,60
145,20.0596435081698,19.7651148083038,27, 6,60,21.6872239351117, 7,23,60
146,116703387.495211,2640.51931552085, 7,13,60,82013.1500527205,30,24,60
147,0.0,0.0, 1, 1,15,0.0, 1, 1,15
148,0.365289673359463,0.350615113647828, 6,15,60,0.380895294549308,23, 8,60
149,70553938.9442999,1207.23320895153, 7,13,60,48097.7110683642,23, 7,60
150,0.0,0.0, 1, 1,15,0.0, 1, 1,15
151,0.365394313251324,0.349815017353439, 6,15,60,0.380904447180207,23, 8,60
224,20.0590194834615,19.9999999999998,27, 4,45,21.6219157637828, 7,20,45
225,37.2426948833563,16.0067414149487,23,14,45,62.5864035549789,19,13,60
258,20.143812616671,19.9999999999999,23, 2,60,21.8810413713262, 7,23,60
259,36.9963708173528,15.4277008299785,23,13,30,62.4583285212446,19,12,45
260,302664571.266705,0.0, 1,13,60,301266.277438618,27, 6,60
291,0.0,0.0, 1, 1,15,0.0, 1, 1,15
322,302664571.266713,0.0, 1,13,60,301266.277438629,27, 6,60
323,35913059.2046637,0.0, 1, 1,15,47561.8149715461,23, 6,60
324,0.0,0.0, 1, 1,15,0.0, 1, 1,15
325,35913059.204665,0.0, 1, 1,15,47561.8149715463,23, 6,60
408,99979424.003429,0.0, 1, 1,15,166632.373339048, 1, 7,15
461,60086700.5017128,0.0, 1, 1,15,100144.500836188, 1, 7,15
4,365,12
8,51754508.1175994,7056.14998876564, 1, 9,15,23520.4999625521, 1, 1,15
9,31103976.2418418,4240.6802729288, 1, 9,15,14135.6009097627, 1, 1,15
71,34379581.3628875,0.0, 1, 1,15,42054.5337772324, 1,20,15
93,20661807.4600553,0.0, 1, 1,15,25274.382214135, 1,20,15
125,41742128.6691732,6007.79053960463, 1, 1,15,30038.9526980232, 1,19,15
137,25086629.6605442,3610.62603059072, 1, 1,15,18053.1301529536, 1,19,15
138,72520964.5734653,0.0, 1, 1,15,265982.324955583,15,12,60
139,0.0,0.0, 1, 1,15,0.0, 1, 1,15
140,18.2178543740515,17.1636359515446,31,24,60,19.242184435662,29,15,60
141,19.6698072193989,19.4241330370912,16, 8,60,19.9453901982288,29,23,60
142,20.,19.9999999999998,31,18,15,20.0000000000002,31,24,60
143,19.1089271870257,18.5818179757724,31,24,60,19.621092217831,29,15,60
144,20.0007253259804,19.9999999999999,16, 6,60,20.1226074564315,28,20,60
145,19.8352662726896,19.7120665185456,16, 8,60,20.0057577155184,28,22,60
146,196477587.215119,28533.4233985801,11,15,60,111341.666791777,31, 9,60
147,0.0,0.0, 1, 1,15,0.0, 1, 1,15
148,0.3762400556329,0.361468457485997,29,15,60,0.394401209546666,31,24,60
149,118016086.781502,17448.0453630627,11,15,60,66656.8616651261,31, 9,60
150,0.0,0.0, 1, 1,15,0.0, 1, 1,15
151,0.376241432455994,0.361470038259798,29,15,60,0.394399826693548,31,24,60
224,20.,19.9999999999998,31,18,15,20.0000000000002,31,24,60
225,20.3165420455626,7.95029479963597,16,19,60,40.1754291538656,25, 4,30
258,20.0007253259804,19.9999999999999,16, 6,60,20.1226074564315,28,20,60
259,20.280096745009,7.451346431967,16,19,60,40.8039751614419,25, 4,15
260,599043279.401799,67457.5461475198,29,15,60,372011.509313335,31,24,60
291,0.0,0.0, 1, 1,15,0.0, 1, 1,15
322,599043279.401812,67457.5461475225,29,15,60,372011.509313335,31,24,60
323,100866715.083299,0.0,11,20,15,72851.34959159,31,18,60
324,0.0,0.0, 1, 1,15,0.0, 1, 1,15
325,100866715.083302,0.0,11,20,15,72851.3495915903,31,18,60
408,103312071.47021,0.0, 1, 1,15,166632.373339048, 1, 7,15
461,62089590.5184365,0.0, 1, 1,15,100144.500836188, 1, 7,15
End of Data
 Number of Records Written=         384
