Program Version,EnergyPlus, Version 8.4.0-09f5359d8a, YMD=2023.08.02 14:39
1,5,Environment Title[],Latitude[deg],Longitude[deg],Time Zone[],Elevation[m]
2,6,Day of Simulation[],Month[],Day of Month[],DST Indicator[1=yes 0=no],Hour[],StartMinute[],EndMinute[],DayType
3,3,Cumulative Day of Simulation[],Month[],Day of Month[],DST Indicator[1=yes 0=no],DayType  ! When Daily Report Variables Requested
4,2,Cumulative Days of Simulation[],Month[]  ! When Monthly Report Variables Requested
5,1,Cumulative Days of Simulation[] ! When Run Period Report Variables Requested
8,9,PERIM,Zone People Total Heating Energy [J] !Monthly  [Value,Min,Day,Hour,Minute,Max,Day,Hour,Minute]
9,9,CORE,Zone People Total Heating Energy [J] !Monthly  [Value,Min,Day,Hour,Minute,Max,Day,Hour,Minute]
71,9,PERIM,Zone Lights Electric Energy [J] !Monthly  [Value,Min,Day,Hour,Minute,Max,Day,Hour,Minute]
93,9,CORE,Zone Lights Electric Energy [J] !Monthly  [Value,Min,Day,Hour,Minute,Max,Day,Hour,Minute]
125,9,PERIM,Zone Electric Equipment Electric Energy [J] !Monthly  [Value,Min,Day,Hour,Minute,Max,Day,Hour,Minute]
137,9,CORE,Zone Electric Equipment Electric Energy [J] !Monthly  [Value,Min,Day,Hour,Minute,Max,Day,Hour,Minute]
138,9,PERIM,Zone Windows Total Transmitted Solar Radiation Energy [J] !Monthly  [Value,Min,Day,Hour,Minute,Max,Day,Hour,Minute]
139,9,CORE,Zone Windows Total Transmitted Solar Radiation Energy [J] !Monthly  [Value,Min,Day,Hour,Minute,Max,Day,Hour,Minute]
140,9,PERIM,Zone Mean Radiant Temperature [C] !Monthly [Value,Min,Day,Hour,Minute,Max,Day,Hour,Minute]
141,9,CORE,Zone Mean Radiant Temperature [C] !Monthly [Value,Min,Day,Hour,Minute,Max,Day,Hour,Minute]
142,9,PERIM,Zone Mean Air Temperature [C] !Monthly [Value,Min,Day,Hour,Minute,Max,Day,Hour,Minute]
143,9,PERIM,Zone Operative Temperature [C] !Monthly [Value,Min,Day,Hour,Minute,Max,Day,Hour,Minute]
144,9,CORE,Zone Mean Air Temperature [C] !Monthly [Value,Min,Day,Hour,Minute,Max,Day,Hour,Minute]
145,9,CORE,Zone Operative Temperature [C] !Monthly [Value,Min,Day,Hour,Minute,Max,Day,Hour,Minute]
146,9,PERIM,Zone Infiltration Total Heat Loss Energy [J] !Monthly  [Value,Min,Day,Hour,Minute,Max,Day,Hour,Minute]
147,9,PERIM,Zone Infiltration Total Heat Gain Energy [J] !Monthly  [Value,Min,Day,Hour,Minute,Max,Day,Hour,Minute]
148,9,PERIM,Zone Infiltration Air Change Rate [ach] !Monthly [Value,Min,Day,Hour,Minute,Max,Day,Hour,Minute]
149,9,CORE,Zone Infiltration Total Heat Loss Energy [J] !Monthly  [Value,Min,Day,Hour,Minute,Max,Day,Hour,Minute]
150,9,CORE,Zone Infiltration Total Heat Gain Energy [J] !Monthly  [Value,Min,Day,Hour,Minute,Max,Day,Hour,Minute]
151,9,CORE,Zone Infiltration Air Change Rate [ach] !Monthly [Value,Min,Day,Hour,Minute,Max,Day,Hour,Minute]
224,9,PERIM,Zone Air Temperature [C] !Monthly [Value,Min,Day,Hour,Minute,Max,Day,Hour,Minute]
225,9,PERIM,Zone Air Relative Humidity [%] !Monthly [Value,Min,Day,Hour,Minute,Max,Day,Hour,Minute]
258,9,CORE,Zone Air Temperature [C] !Monthly [Value,Min,Day,Hour,Minute,Max,Day,Hour,Minute]
259,9,CORE,Zone Air Relative Humidity [%] !Monthly [Value,Min,Day,Hour,Minute,Max,Day,Hour,Minute]
260,9,PERIM IDEAL LOADS AIR,Zone Ideal Loads Supply Air Total Heating Energy [J] !Monthly  [Value,Min,Day,Hour,Minute,Max,Day,Hour,Minute]
291,9,PERIM IDEAL LOADS AIR,Zone Ideal Loads Supply Air Total Cooling Energy [J] !Monthly  [Value,Min,Day,Hour,Minute,Max,Day,Hour,Minute]
322,9,PERIM IDEAL LOADS AIR,Zone Ideal Loads Zone Total Heating Energy [J] !Monthly  [Value,Min,Day,Hour,Minute,Max,Day,Hour,Minute]
323,9,CORE IDEAL LOADS AIR,Zone Ideal Loads Supply Air Total Heating Energy [J] !Monthly  [Value,Min,Day,Hour,Minute,Max,Day,Hour,Minute]
324,9,CORE IDEAL LOADS AIR,Zone Ideal Loads Supply Air Total Cooling Energy [J] !Monthly  [Value,Min,Day,Hour,Minute,Max,Day,Hour,Minute]
325,9,CORE IDEAL LOADS AIR,Zone Ideal Loads Zone Total Heating Energy [J] !Monthly  [Value,Min,Day,Hour,Minute,Max,Day,Hour,Minute]
408,9,DHW PERIM,Water Use Equipment Heating Energy [J] !Monthly  [Value,Min,Day,Hour,Minute,Max,Day,Hour,Minute]
461,9,DHW CORE,Water Use Equipment Heating Energy [J] !Monthly  [Value,Min,Day,Hour,Minute,Max,Day,Hour,Minute]
End of Data Dictionary
1,ARCHSIM,  37.57, 126.97,   9.00,  87.10
4,31, 1
8,51566344.120141,7056.14998907246, 1,16,15,23520.4999635749, 1, 1,15
9,30990891.4385957,4240.68027348052, 1,16,15,14135.6009116017, 1, 1,15
71,34526772.2326092,0.0, 1, 1,15,42054.5337790611, 1,20,15
93,20750267.8005045,0.0, 1, 1,15,25274.3822174233, 1,20,15
125,41814222.1574669,6007.79053986587, 1, 1,15,30038.9526993293, 1,20,15
137,25129957.1761806,3610.62603106047, 1, 1,15,18053.1301553023, 1,20,15
138,1095269113.78968,0.0, 1, 1,15,2094779.68075729,30,12,30
139,0.0,0.0, 1, 1,15,0.0, 1, 1,15
140,26.4841841153069,17.3622188693892,22, 8,45,40.6011721863244, 4,15,45
141,25.2876321583119,19.7492502009385,22, 9,45,30.6863681350387, 4,22,60
142,25.9216085315716,19.9999999999999,30, 4,15,40.193050513291, 4,15,30
143,26.2028963234392,18.6811094346946,22, 8,45,40.3835829012101, 4,15,45
144,24.6218890048154,19.9999999999999,22, 7,60,30.1546998986037, 4,20,60
145,24.9547605815637,19.8746251004693,22, 9,45,30.4080106799992, 4,22,30
146,275288312.708307,12161.1979534931,19,11,47,137877.162612252,14,15,15
147,0.0,0.0, 1, 1, 7,0.0, 1, 1, 7
148,0.386349430127042,0.371486894314999, 6, 5,30,0.40473100769836,14,14,60
149,158247993.115852,6355.66346869923,19,11,60,72674.4590484214,10,24,60
150,0.0,0.0, 1, 1, 7,0.0, 1, 1, 7
151,0.384702700720163,0.368355680522596, 6,15,60,0.396264239987115,11, 1, 7
224,25.9216085315716,19.9999999999999,30, 4,15,40.193050513291, 4,15,30
225,15.2278306255746,3.76912145210771,16,15,30,34.6978962110251, 2, 7,60
258,24.6218890048154,19.9999999999999,22, 7,60,30.1546998986037, 4,20,60
259,15.3720074114451,5.27450283749945,14,19,60,30.0273710951089, 2, 7,60
260,70026777.6433353,0.0, 1, 1, 7,348586.188606889,22, 8,45
291,0.0,0.0, 1, 1, 7,0.0, 1, 1, 7
322,70026777.6433367,0.0, 1, 1, 7,348586.188606893,22, 8,45
323,2065767.73601515,0.0, 1, 1, 7,53098.8624976081,22, 8,60
324,0.0,0.0, 1, 1, 7,0.0, 1, 1, 7
325,2065767.73601521,0.0, 1, 1, 7,53098.8624976091,22, 8,60
408,103312071.474701,0.0, 1, 1, 7,166632.373346293, 1, 7,15
461,62089590.5265146,0.0, 1, 1, 7,100144.500849217, 1, 7,15
4,59, 2
8,46551773.527907,7056.14998907246, 1, 9,15,23520.4999635749, 1, 1,15
9,27977181.3242422,4240.68027348052, 1, 9,15,14135.6009116017, 1, 1,15
71,31204464.0640634,0.0, 1, 1,15,42054.5337790611, 1,20,15
93,18753591.6053281,0.0, 1, 1,15,25274.3822174233, 1,20,15
125,37776986.9146769,6007.79053986587, 1, 1,15,30038.9526993293, 1,19,15
137,22703616.483308,3610.62603106047, 1, 1,15,18053.1301553023, 1,19,15
138,1017615884.07482,0.0, 1, 1,15,2094751.17556629, 9,12,30
139,0.0,0.0, 1, 1,15,0.0, 1, 1,15
140,28.4774660953418,17.5748183039845, 4, 7,30,44.9476500281401,28,15,30
141,27.0107568605512,19.7704761721708, 4, 8,60,35.5130386651361,28,21,45
142,27.8543710971358,19.9999999999999, 1, 5,60,44.3749509766318,28,15,15
143,28.1659185962388,18.7874091519922, 4, 7,30,44.6452344697627,28,15,15
144,26.3790601269135,20., 4, 7,15,34.9326512095063,28,20,60
145,26.6949084937323,19.8852380860854, 4, 8,60,35.2083303899457,28,20,60
146,242128031.194375,11625.7942018696,26,10,17,140350.01016033, 7,14,60
147,0.0,0.0, 1, 1, 7,0.0, 1, 1, 7
148,0.384863023186376,0.369429521453072, 3,15,60,0.40567538158796, 7,15,30
149,138507549.802503,6717.38301606686, 5,11,47,81344.5488557453, 7,24,60
150,0.0,0.0, 1, 1, 7,0.0, 1, 1, 7
151,0.383033597394511,0.369520545120376,23,15,60,0.401523277223521, 8, 1, 7
224,27.8543710971358,19.9999999999999, 1, 5,60,44.3749509766318,28,15,15
225,15.1550817954636,3.36287120947059, 9,15,30,38.1566965207489, 3,22,15
258,26.3790601269135,20., 4, 7,15,34.933636493686,28,20,60
259,15.4021628917211,4.88900026666948, 9,17,60,37.3683469047564, 3,22,15
260,39110102.7683262,0.0, 1, 1, 7,301113.940351363, 4, 7,30
291,0.0,0.0, 1, 1, 7,0.0, 1, 1, 7
322,39110102.7683271,0.0, 1, 1, 7,301113.94035137, 4, 7,30
323,1079410.47153341,0.0, 1, 1, 7,39382.1569850187, 4, 8,60
324,0.0,0.0, 1, 1, 7,0.0, 1, 1, 7
325,1079410.47153345,0.0, 1, 1, 7,39382.1569850187, 4, 8,60
408,93314129.0739239,0.0, 1, 1, 7,166632.373346293, 1, 7,15
461,56080920.4755615,0.0, 1, 1, 7,100144.500849217, 1, 7,15
4,90, 3
8,51378180.1204325,7056.14998907246, 1, 9,15,23520.4999635749, 1, 1,15
9,30877806.6313029,4240.68027348052, 1, 9,15,14135.6009116017, 1, 1,15
71,34673963.1008359,0.0, 1, 1,15,42054.5337790611, 1,20,15
93,20838728.1382655,0.0, 1, 1,15,25274.3822174233, 1,20,15
125,41886315.6439453,6007.79053986587, 1, 1,15,30038.9526993293, 1,19,15
137,25173284.6885533,3610.62603106047, 1, 1,15,18053.1301553023, 1,19,15
138,1045303441.15656,0.0, 1, 1,15,1792332.19068537, 6,11,60
139,0.0,0.0, 1, 1,15,0.0, 1, 1,15
140,31.4125635018504,20.5449397893328, 9, 7,45,45.3450660786391,19,15,30
141,30.4160242841773,24.6592790242249, 9,10,45,36.4374885967695,19,22,45
142,30.6525831655079,20.0000000000002, 9, 7,60,44.9986507616364,19,15,15
143,31.0325733336791,20.272469894703, 9, 7,45,45.1702563172964,19,15,15
144,29.8191746013745,24.026260786299, 9,10,30,36.0470979637235,19,20,45
145,30.1175994427758,24.3434763265227, 9,10,45,36.2244776046939,19,21,60
146,246259965.246653,10876.5921963982, 9,10,32,113416.687272564, 7,14,30
147,0.0,0.0, 1, 1, 7,0.0, 1, 1, 7
148,0.380949655649329,0.370565695420885,26, 8,30,0.396676541453334, 7,14,30
149,144915506.509345,6590.71353374263, 9,10,45,66647.4228810039, 6, 3,60
150,0.0,0.0, 1, 1, 7,0.0, 1, 1, 7
151,0.379954749109984,0.367158969928616,30,15,60,0.392441997273325, 8, 3,60
224,30.6525831655079,20.0000000000002, 9, 7,60,44.9986507616364,19,15,15
225,16.7566826039457,4.4981471732256, 7,14,60,34.5567193503447,28, 6,60
258,29.8191746013745,24.0184319876688, 9,10,30,36.0470979637235,19,20,45
259,16.9333649980982,6.2653054964968, 7,17,60,28.4704519980776,28, 6,60
260,39862.8810123746,0.0, 1, 1, 7,19095.5892173333, 9, 7,45
291,0.0,0.0, 1, 1, 7,0.0, 1, 1, 7
322,39862.8810123752,0.0, 1, 1, 7,19095.5892173333, 9, 7,45
323,0.0,0.0, 1, 1, 7,0.0, 1, 1, 7
324,0.0,0.0, 1, 1, 7,0.0, 1, 1, 7
325,0.0,0.0, 1, 1, 7,0.0, 1, 1, 7
408,103312071.474701,0.0, 1, 1, 7,166632.373346293, 1, 7,15
461,62089590.5265146,0.0, 1, 1, 7,100144.500849217, 1, 7,15
4,120, 4
8,50145705.9223412,7056.14998907246, 1,15,15,23520.4999635749, 1, 1,15
9,30137101.143535,4240.68027348052, 1,15,15,14135.6009116017, 1, 1,15
71,33223081.6854583,0.0, 1, 1,15,42054.5337790611, 1,19,15
93,19966761.9517644,0.0, 1, 1,15,25274.3822174233, 1,19,15
125,40372352.427899,6007.79053986587, 1, 1,15,30038.9526993293, 1,19,15
137,24263406.9287262,3610.62603106047, 1, 1,15,18053.1301553023, 1,19,15
138,713546534.593694,0.0, 1, 1,15,1496232.71631458, 2,11,45
139,0.0,0.0, 1, 1,15,0.0, 1, 1,15
140,30.2051150934277,19.2940315121981,26, 6,45,46.6071550949978,10,14,60
141,29.6983763863511,22.1208540297369,26,10,45,39.4657987041705,10,21,60
142,29.6791451134251,19.9999999999999,26, 6,60,46.1600105804234,10,14,45
143,29.9421301034264,19.647015756099,26, 6,45,46.3797680208121,10,14,45
144,29.3347509404191,21.753641799059,26,11,30,39.1907425781946,10,19,60
145,29.5165636633851,21.9447271011644,26,11,15,39.2704520827659,10,21,30
146,173032195.260281,12994.7198991494,27,10, 5,99410.0896405962,11,22,60
147,0.0,0.0, 1, 1,15,0.0, 1, 1,15
148,0.371240446512616,0.362345832421819,19,12,60,0.384495643420638, 1,14,30
149,103170888.309696,4972.02694475528,19,19,60,61036.084879723,11,22,60
150,0.0,0.0, 1, 1,15,0.0, 1, 1,15
151,0.37085709878212,0.356015293098019,19,12,60,0.382943889120979, 1, 3,22
224,29.6791451134251,19.9999999999999,26, 6,60,46.1600105804234,10,14,45
225,26.4111192296021,8.33437316735675,11,16,60,54.938666944875,20,23,45
258,29.3347509404191,21.744722890118,26,11,15,39.1907425781946,10,19,60
259,25.9984993127648,10.620585782622,11,16,60,46.7476925952044,25, 2,30
260,1741286.30832475,0.0, 1, 1,15,88792.8729644946,26, 6,60
291,0.0,0.0, 1, 1,15,0.0, 1, 1,15
322,1741286.30832479,0.0, 1, 1,15,88792.8729644962,26, 6,60
323,0.0,0.0, 1, 1,15,0.0, 1, 1,15
324,0.0,0.0, 1, 1,15,0.0, 1, 1,15
325,0.0,0.0, 1, 1,15,0.0, 1, 1,15
408,99979424.0077756,0.0, 1, 1,15,166632.373346293, 1, 6,15
461,60086700.5095302,0.0, 1, 1,15,100144.500849217, 1, 6,15
4,151, 5
8,51378180.1204324,7056.14998907246, 1, 8,15,23520.4999635749, 1, 1,15
9,30877806.6313029,4240.68027348052, 1, 8,15,14135.6009116017, 1, 1,15
71,34673963.1008359,0.0, 1, 1,15,42054.5337790611, 1,19,15
93,20838728.1382655,0.0, 1, 1,15,25274.3822174233, 1,19,15
125,41886315.6439452,6007.79053986587, 1, 1,15,30038.9526993293, 1,18,15
137,25173284.6885533,3610.62603106047, 1, 1,15,18053.1301553023, 1,18,15
138,502672329.464899,0.0, 1, 1,15,939839.598015241, 5,11,30
139,0.0,0.0, 1, 1,15,0.0, 1, 1,15
140,30.1890871803985,22.740060180547,30, 6,45,38.2753323189545,26,15,60
141,30.1627008535695,25.058756486691,30, 9,60,35.5783322033646,26,22,60
142,29.82121064522,22.4292199250765,11, 6,60,37.9175539713998,26,15,60
143,30.0051489128093,22.6037324427962,11, 6,60,38.0964431451772,26,15,60
144,29.9614548627072,24.9513337302162,30, 9,45,35.572785881852,26,21,60
145,30.0620778581383,25.0058027337043,30, 9,45,35.5569771894233,26,21,60
146,133180594.864421,2839.23778307168,21,19,60,79211.8636834202, 8, 1,60
147,0.0,0.0, 1, 1,15,0.0, 1, 1,15
148,0.364406256515888,0.355942264379476,23,15,60,0.372839356017957, 1, 3,60
149,81674054.9481705,0.0,11,18,60,51861.8342532461,17, 5,60
150,4786.63765636945,0.0, 1, 1,15,1927.04702620349,21,19,60
151,0.364601409172752,0.351367152894959,23,15,60,0.376265252723156, 1, 3,60
224,29.82121064522,22.4292199250765,11, 6,60,37.9175539713998,26,15,60
225,35.748383502519,14.1459402951553, 8,15,30,64.1846804714016,29, 4,30
258,29.9614548627072,24.9513337302162,30, 9,45,35.572785881852,26,21,60
259,34.8204105483456,17.1286787339457, 8,16,60,58.2314868826768,28,15,30
260,0.0,0.0, 1, 1,15,0.0, 1, 1,15
291,0.0,0.0, 1, 1,15,0.0, 1, 1,15
322,0.0,0.0, 1, 1,15,0.0, 1, 1,15
323,0.0,0.0, 1, 1,15,0.0, 1, 1,15
324,0.0,0.0, 1, 1,15,0.0, 1, 1,15
325,0.0,0.0, 1, 1,15,0.0, 1, 1,15
408,103312071.474701,0.0, 1, 1,15,166632.373346293, 1, 6,15
461,62089590.5265146,0.0, 1, 1,15,100144.500849217, 1, 6,15
4,181, 6
8,49769377.922924,7056.14998907246, 1, 8,15,23520.4999635749, 1, 1,15
9,29910931.5289493,4240.68027348052, 1, 8,15,14135.6009116017, 1, 1,15
71,33517463.4219118,0.0, 1, 1,15,42054.5337790611, 1,19,15
93,20143682.6272863,0.0, 1, 1,15,25274.3822174233, 1,19,15
125,40516539.4008559,6007.79053986587, 1, 1,15,30038.9526993293, 1,18,15
137,24350061.9534716,3610.62603106047, 1, 1,15,18053.1301553023, 1,18,15
138,427477921.158636,0.0, 1, 1,15,780050.81259045, 1,11,30
139,0.0,0.0, 1, 1,15,0.0, 1, 1,15
140,33.5449092785993,27.2637670357438, 1, 6,60,40.5506971151253,10,16,30
141,33.4238609999239,28.9976403603828, 1,10,15,38.0855413259762,11,22,60
142,33.2340063874104,26.800225551718, 1, 5,60,40.2076630343937,10,16,15
143,33.3894578330049,27.0667654758987, 1, 6,15,40.3781255668591,10,16,30
144,33.2702632705669,28.7269048777747, 1, 9,45,38.1322528124503,11,20,60
145,33.3470621352454,28.8704879143162, 1, 9,60,38.0604339925175,11,22,15
146,120718645.185737,10746.9945469267,15,10,52,62893.4250951329, 8, 3,15
147,0.0,0.0, 1, 1,15,0.0, 1, 1,15
148,0.36198754804637,0.35571498204403,15,15,60,0.369356579081071,12, 3,22
149,73589468.0004295,583.743667256671, 1,15,60,43656.6539605967,12, 7,15
150,0.0,0.0, 1, 1,15,0.0, 1, 1,15
151,0.362046553153194,0.352846554792785,15,15,60,0.372260191905613,12, 6,45
224,33.2340063874104,26.800225551718, 1, 5,60,40.2076630343937,10,16,15
225,41.1915696184274,15.1383285839636, 1,15,15,69.1187237487659,14, 5,60
258,33.2702632705669,28.7269048777747, 1, 9,45,38.1322528124503,11,20,60
259,40.6532305746321,18.2145418590449, 1,15,15,62.9981199650379,14, 5,60
260,0.0,0.0, 1, 1,15,0.0, 1, 1,15
291,0.0,0.0, 1, 1,15,0.0, 1, 1,15
322,0.0,0.0, 1, 1,15,0.0, 1, 1,15
323,0.0,0.0, 1, 1,15,0.0, 1, 1,15
324,0.0,0.0, 1, 1,15,0.0, 1, 1,15
325,0.0,0.0, 1, 1,15,0.0, 1, 1,15
408,99979424.0077756,0.0, 1, 1,15,166632.373346293, 1, 6,15
461,60086700.5095302,0.0, 1, 1,15,100144.500849217, 1, 6,15
4,212, 7
8,51754508.1198496,7056.14998907246, 1,15,15,23520.4999635749, 1, 1,15
9,31103976.2458885,4240.68027348052, 1,15,15,14135.6009116017, 1, 1,15
71,34379581.3643825,0.0, 1, 1,15,42054.5337790611, 1,19,15
93,20661807.4627435,0.0, 1, 1,15,25274.3822174233, 1,19,15
125,41742128.6709885,6007.79053986587, 1, 1,15,30038.9526993293, 1,19,15
137,25086629.6638079,3610.62603106047, 1, 1,15,18053.1301553023, 1,19,15
138,382249335.714267,0.0, 1, 1,15,766235.921995335,28,11,30
139,0.0,0.0, 1, 1,15,0.0, 1, 1,15
140,26.8029247764296,23.9858545247884,12, 6,30,35.7250565585515, 1,14,15
141,25.7428418266964,24.5325943159176,17,22,15,32.9505702707461, 1, 1,15
142,25.8237169046372,23.9588343856645, 3,14,15,35.4687388896204, 1,13,60
143,26.3133208405334,24.0351234236109,12, 4,30,35.5335003175723, 1,13,60
144,25.3359270913121,23.9584578428539, 3,14,15,32.6296024687021, 1, 1,15
145,25.5393844590043,24.2694769981375,17,21,60,32.7900863697241, 1, 1,15
146,26169831.6191619,0.0, 1,14, 2,40376.1514825492, 1, 1,15
147,22958673.6106882,0.0, 1, 1,15,52528.2188712392,30,14,30
148,0.35060861085007,0.341479380645347,20,15,60,0.359930007723948, 1, 1,60
149,13438992.0852542,0.0, 1,14, 2,28267.940885826, 1, 3,60
150,13601908.0593512,0.0, 1, 1,15,29907.1242452564,30,14,45
151,0.350039018821638,0.341467097102355,20,15,60,0.362121732825026, 1, 3,60
224,25.8237169046372,23.5005861340801, 2,14, 5,35.4687388896204, 1,13,60
225,72.1669173019582,43.5814011296966, 6,13,60,91.1249177718614, 3, 5,60
258,25.3359270913121,23.5410594703103,19,14, 3,32.6296024687021, 1, 1,15
259,74.1623997790175,53.6193198754645, 1,13,60,90.7883039493656, 2,14, 1
260,0.0,0.0, 1, 1,15,0.0, 1, 1,15
291,403293441.706222,0.0, 1, 1,15,1482207.33836825, 1,14,45
322,4.516688250078005E-006,0.0, 1, 1,15,1.031366991810501E-007,10,14,60
323,0.0,0.0, 1, 1,15,0.0, 1, 1,15
324,140492583.114369,0.0, 1, 1,15,733837.69760087, 1,14,45
325,7.025514037195535E-007,0.0, 1, 1,15,3.294644557172433E-008, 1,14,60
408,103312071.474701,0.0, 1, 1,15,166632.373346293, 1, 6,15
461,62089590.5265146,0.0, 1, 1,15,100144.500849217, 1, 6,15
4,243, 8
8,51378180.1204325,7056.14998907246, 1, 8,15,23520.4999635749, 1, 1,15
9,30877806.6313029,4240.68027348052, 1, 8,15,14135.6009116017, 1, 1,15
71,34673963.1008359,0.0, 1, 1,15,42054.5337790611, 1,19,15
93,20838728.1382655,0.0, 1, 1,15,25274.3822174233, 1,19,15
125,41886315.6439452,6007.79053986587, 1, 1,15,30038.9526993293, 1,18,15
137,25173284.6885533,3610.62603106047, 1, 1,15,18053.1301553023, 1,18,15
138,583683443.912058,0.0, 1, 1,15,1281098.49724183,30,11,30
139,0.0,0.0, 1, 1,15,0.0, 1, 1,15
140,27.6996807625895,23.2562119629563,26, 6,60,39.3474977643298,30,14,15
141,25.9130168445062,24.46549241295,26, 8,15,28.3027290793097,30,14,15
142,26.3311034927113,23.0525374805029,26, 6,60,39.2134487907725,30,13,60
143,27.0153921276504,23.1543747217296,26, 6,60,39.1663984523455,30,13,60
144,25.3815197658834,23.9488382324863,25,14,15,28.4509329775259, 7,13,60
145,25.6472683051948,24.3929051830574,25,21,60,28.2907194185746, 7,13,60
146,30904156.4893327,0.0, 1,14, 1,49027.2993443226,27,13,45
147,24584522.0417981,0.0, 1, 1,15,52206.4387799462, 7,16,15
148,0.350659776606819,0.339055480725879, 7,15,60,0.361729358880944,30,13,37
149,13927132.5497176,0.0, 1,13,30,20278.4473348069,28, 6,60
150,14746259.9324374,0.0, 1, 1,15,31020.1792228296, 7,15,60
151,0.349555698760452,0.339047320337116, 7,15,60,0.358125326009897,28, 6,60
224,26.3311034927113,23.0525374805029,26, 6,60,39.2134487907725,30,13,60
225,69.3986729445735,27.8508317873179,30,13,60,92.746273467173, 2, 5,60
258,25.3815197658834,23.5688345828836,25,14, 5,28.4509329775259, 7,13,60
259,72.7160082891888,50.0238137199844,30,13,60,93.493569423953, 2, 5,60
260,0.0,0.0, 1, 1,15,0.0, 1, 1,15
291,574187704.907115,0.0, 1, 1,15,2067266.28497863,30,14,45
322,6.750380521225452E-006,0.0, 1, 1,15,2.246906660730019E-007,31,15,15
323,0.0,0.0, 1, 1,15,0.0, 1, 1,15
324,171556795.93831,0.0, 1, 1,15,358288.788414402, 7,14,45
325,1.079817195659416E-006,0.0, 1, 1,15,3.857394403894432E-008, 9,14,45
408,103312071.474701,0.0, 1, 1,15,166632.373346293, 1, 6,15
461,62089590.5265146,0.0, 1, 1,15,100144.500849217, 1, 6,15
4,273, 9
8,49957541.9226326,7056.14998907246, 1, 8,15,23520.4999635749, 1, 1,15
9,30024016.3362421,4240.68027348052, 1, 8,15,14135.6009116017, 1, 1,15
71,33370272.5536851,0.0, 1, 1,15,42054.5337790611, 1,19,15
93,20055222.2895254,0.0, 1, 1,15,25274.3822174233, 1,19,15
125,40444445.9143774,6007.79053986587, 1, 1,15,30038.9526993293, 1,18,15
137,24306734.4410989,3610.62603106047, 1, 1,15,18053.1301553023, 1,18,15
138,726188117.376323,0.0, 1, 1,15,1572364.91160991,19,11,45
139,0.0,0.0, 1, 1,15,0.0, 1, 1,15
140,27.3712714159921,22.5450241980853,30, 7,30,41.0997621177403,22,14,15
141,25.5962084414369,24.0173293275151,30, 8,15,28.3752144945624, 7,14,15
142,25.8615662885552,22.295277894793,30, 7,30,40.9153753850227,22,13,60
143,26.6164188522737,22.4201510464392,30, 7,30,40.8496273922923,22,13,60
144,25.0042659824281,23.8889888234543,30, 7,60,28.4386225821029, 7,13,60
145,25.3002372119325,23.9573398808666,30, 7,60,28.3133513809859, 7,13,60
146,57551601.0366949,0.0, 1,14, 2,51802.4351614875,16,13,60
147,2649516.88596046,0.0, 1, 1,15,23137.2287904916,20,18,60
148,0.355014823964323,0.342504050366142, 6,15,60,0.370677332423274,21,13,22
149,29741589.5008803,0.0, 1,14, 1,29919.2973647527,15,24,60
150,1621178.55645263,0.0, 1, 1,15,15713.4866019998,20,18,60
151,0.354015159641292,0.342504741167163, 6,15,60,0.363144013267917,30,24,60
224,25.8615662885552,22.295277894793,30, 7,30,40.9894661581065,22,13,60
225,59.7747511261854,18.9563885272677,20,13,60,86.1493992285006, 9, 6,60
258,25.0042659824281,23.5362969900494,17,14, 3,28.4386225821029, 7,13,60
259,61.3091254611859,33.8904008150218,16,13,60,83.9581860084245, 9, 6,60
260,0.0,0.0, 1, 1,15,0.0, 1, 1,15
291,564097492.048932,0.0, 1, 1,15,2366755.23998222,22,14,45
322,1.173760736605800E-005,0.0, 1, 1,15,1.878561306511983E-007,20,15,15
323,0.0,0.0, 1, 1,15,0.0, 1, 1,15
324,139896461.988925,0.0, 1, 1,15,363004.466964453, 7,14,45
325,2.801229754822998E-006,0.0, 1, 1,15,3.591367203625850E-008,23,14,45
408,99979424.0077756,0.0, 1, 1,15,166632.373346293, 1, 6,15
461,60086700.5095302,0.0, 1, 1,15,100144.500849217, 1, 6,15
4,304,10
8,51566344.120141,7056.14998907246, 1,15,15,23520.4999635749, 1, 1,15
9,30990891.4385957,4240.68027348052, 1,15,15,14135.6009116017, 1, 1,15
71,34526772.2326092,0.0, 1, 1,15,42054.5337790611, 1,19,15
93,20750267.8005045,0.0, 1, 1,15,25274.3822174233, 1,19,15
125,41814222.1574669,6007.79053986587, 1, 1,15,30038.9526993293, 1,19,15
137,25129957.1761806,3610.62603106047, 1, 1,15,18053.1301553023, 1,19,15
138,951325278.699915,0.0, 1, 1,15,1918602.45860512,31,11,30
139,0.0,0.0, 1, 1,15,0.0, 1, 1,15
140,36.5988696513266,22.5561754607284, 1, 7,30,49.2773484405682,15,15,15
141,35.4445338304569,24.2052467696258, 1, 8,30,41.0082410899494, 9,21,60
142,35.9823275985973,22.2077287586273, 1, 7,30,48.8916148379126,15,14,60
143,36.290598624962,22.3819521096779, 1, 7,30,49.0789719630719,15,14,60
144,34.9802627799518,23.9659344253864, 1, 7,60,40.6672995737843, 9,19,45
145,35.2123983052044,24.0939563717613, 1, 7,60,40.8043333637162, 9,21,30
146,216642949.995682,8466.05135229831,29, 9,32,110366.909162715,15,24,60
147,0.0,0.0, 1, 1,15,0.0, 1, 1,15
148,0.375018797835685,0.360792868660582, 1, 6,60,0.390561141828876,31,13,37
149,126594977.283039,4545.29403573109, 1,11,18,69925.6732798053,15,24,60
150,0.0,0.0, 1, 1,15,0.0, 1, 1,15
151,0.373838845759522,0.358592819558125, 1,12,60,0.385058973411833,18,24,22
224,35.9823275985973,22.2077287586273, 1, 7,30,48.8916148379126,15,14,60
225,25.1057507289719,6.19705724373637,19,14,60,53.9076876158424,28,24,45
258,34.9802627799518,23.9538641891676, 1, 7,60,40.6672995737843, 9,19,45
259,25.4490157742581,10.388661975088,19,16,22,48.4291140655912, 1, 1,15
260,0.0,0.0, 1, 1,15,0.0, 1, 1,15
291,0.0,0.0, 1, 1,15,0.0, 1, 1,15
322,0.0,0.0, 1, 1,15,0.0, 1, 1,15
323,0.0,0.0, 1, 1,15,0.0, 1, 1,15
324,0.0,0.0, 1, 1,15,0.0, 1, 1,15
325,0.0,0.0, 1, 1,15,0.0, 1, 1,15
408,103312071.474701,0.0, 1, 1,15,166632.373346293, 1, 6,15
461,62089590.5265146,0.0, 1, 1,15,100144.500849217, 1, 6,15
4,334,11
8,49769377.922924,7056.14998907246, 1, 9,15,23520.4999635749, 1, 1,15
9,29910931.5289493,4240.68027348052, 1, 9,15,14135.6009116017, 1, 1,15
71,33517463.4219118,0.0, 1, 1,15,42054.5337790611, 1,20,15
93,20143682.6272863,0.0, 1, 1,15,25274.3822174233, 1,20,15
125,40516539.4008558,6007.79053986587, 1, 1,15,30038.9526993293, 1,19,15
137,24350061.9534716,3610.62603106047, 1, 1,15,18053.1301553023, 1,19,15
138,922696999.143712,0.0, 1, 1,15,1913235.66631603,27,11,60
139,0.0,0.0, 1, 1,15,0.0, 1, 1,15
140,30.5303589846228,18.7821731765062,11, 7,60,47.0994604034234, 6,15,15
141,29.8620100831861,22.3729538231675,11, 9,60,38.5838029589628, 7,22,15
142,29.8932995627911,19.9999999999999,11, 8,15,46.7844910903664, 6,14,60
143,30.211829273707,19.3910865882531,11, 7,60,46.9310774629429, 6,15,15
144,29.3467917620064,21.969253847937,11, 8,60,38.2344292717915, 7,20,60
145,29.6044009225962,22.2034698969951,11, 9,60,38.3924635300793, 7,21,60
146,214503896.235169,9455.29454277831,24,11,32,105187.293142848,22,15,45
147,0.0,0.0, 1, 1,15,0.0, 1, 1,15
148,0.377494886508643,0.366137293764948,19, 8,45,0.392429982382375,22,15,15
149,127470739.4234,5152.1031593229,24,11,32,60744.2717347613,23, 7,30
150,0.0,0.0, 1, 1,15,0.0, 1, 1,15
151,0.376854406290891,0.365841536203438, 5,14,60,0.387850320722781,23, 7,30
224,29.8932995627911,19.9999999999999,11, 8,15,46.7844910903664, 6,14,60
225,24.4167373645914,7.69943464217406,27,14,60,49.1192666203143,19, 8,45
258,29.3467917620064,21.969253847937,11, 8,60,38.2344292717915, 7,20,60
259,24.3584065012922,12.0082657665816,23,15,45,41.5569239228989,19,11,15
260,7290809.91441283,0.0, 1, 1,15,160166.002423574,11, 7,60
291,0.0,0.0, 1, 1,15,0.0, 1, 1,15
322,7290809.91441298,0.0, 1, 1,15,160166.00242358,11, 7,60
323,0.0,0.0, 1, 1,15,0.0, 1, 1,15
324,0.0,0.0, 1, 1,15,0.0, 1, 1,15
325,0.0,0.0, 1, 1,15,0.0, 1, 1,15
408,99979424.0077756,0.0, 1, 1,15,166632.373346293, 1, 7,15
461,60086700.5095302,0.0, 1, 1,15,100144.500849217, 1, 7,15
4,365,12
8,51754508.1198496,7056.14998907246, 1, 9,15,23520.4999635749, 1, 1,15
9,31103976.2458885,4240.68027348052, 1, 9,15,14135.6009116017, 1, 1,15
71,34379581.3643825,0.0, 1, 1,15,42054.5337790611, 1,20,15
93,20661807.4627435,0.0, 1, 1,15,25274.3822174233, 1,20,15
125,41742128.6709885,6007.79053986587, 1, 1,15,30038.9526993293, 1,19,15
137,25086629.6638079,3610.62603106047, 1, 1,15,18053.1301553023, 1,19,15
138,1092193084.78066,0.0, 1, 1,15,2074071.95277646,31,12,15
139,0.0,0.0, 1, 1,15,0.0, 1, 1,15
140,27.1539480520542,17.5746896842735,31, 7,30,39.4319416539323,27,15,45
141,25.9618362437553,20.1734681178039,31, 9,30,30.3009942707771,28,22,30
142,26.5364480940561,19.9999999999998,31, 5,30,39.0317889303295,27,15,30
143,26.8451980730551,18.7873448421367,31, 7,30,39.2292813750618,27,15,30
144,25.3164304628214,20.,31, 7,15,29.9437204180022,28,20,60
145,25.6391333532883,20.0867340589019,31, 9,30,30.1018028204721,28,22,15
146,264926644.82128,11194.7599127142, 4,11,17,145719.748949117,31,14,60
147,0.0,0.0, 1, 1,15,0.0, 1, 1,15
148,0.384646785491652,0.36920827810529,25, 3,60,0.408238907982168,31,14,45
149,152643953.117792,6010.81710469277, 4,11,29,72628.1503729951,31,23,60
150,0.0,0.0, 1, 1,15,0.0, 1, 1,15
151,0.383106211838809,0.37020182681619,29,15,60,0.398975933650935,31,21,52
224,26.5364480940561,19.9999999999998,31, 5,30,39.0317889303295,27,15,30
225,16.7191134902212,4.14031778634994,20,14,30,41.1923886065215,25, 4,30
258,25.3164304628214,20.,31, 7,15,29.9437204180022,28,20,60
259,16.8315927237508,6.18599810509892,16,19,60,35.0772850561114,25, 4,60
260,44374307.4579246,0.0, 1, 9,22,333558.249686916,31, 6,60
291,0.0,0.0, 1, 1,15,0.0, 1, 1,15
322,44374307.4579255,0.0, 1, 9,22,333558.249686922,31, 6,60
323,632221.797943121,0.0, 1, 1,15,32949.9107073989,31, 9,45
324,0.0,0.0, 1, 1,15,0.0, 1, 1,15
325,632221.797943141,0.0, 1, 1,15,32949.9107073993,31, 9,45
408,103312071.474701,0.0, 1, 1,15,166632.373346293, 1, 7,15
461,62089590.5265146,0.0, 1, 1,15,100144.500849217, 1, 7,15
End of Data
 Number of Records Written=         384
