Program Version,EnergyPlus, Version 8.4.0-09f5359d8a, YMD=2023.08.02 14:39
1,5,Environment Title[],Latitude[deg],Longitude[deg],Time Zone[],Elevation[m]
2,6,Day of Simulation[],Month[],Day of Month[],DST Indicator[1=yes 0=no],Hour[],StartMinute[],EndMinute[],DayType
3,3,Cumulative Day of Simulation[],Month[],Day of Month[],DST Indicator[1=yes 0=no],DayType  ! When Daily Report Variables Requested
4,2,Cumulative Days of Simulation[],Month[]  ! When Monthly Report Variables Requested
5,1,Cumulative Days of Simulation[] ! When Run Period Report Variables Requested
8,9,PERIM,Zone People Total Heating Energy [J] !Monthly  [Value,Min,Day,Hour,Minute,Max,Day,Hour,Minute]
9,9,CORE,Zone People Total Heating Energy [J] !Monthly  [Value,Min,Day,Hour,Minute,Max,Day,Hour,Minute]
71,9,PERIM,Zone Lights Electric Energy [J] !Monthly  [Value,Min,Day,Hour,Minute,Max,Day,Hour,Minute]
93,9,CORE,Zone Lights Electric Energy [J] !Monthly  [Value,Min,Day,Hour,Minute,Max,Day,Hour,Minute]
125,9,PERIM,Zone Electric Equipment Electric Energy [J] !Monthly  [Value,Min,Day,Hour,Minute,Max,Day,Hour,Minute]
137,9,CORE,Zone Electric Equipment Electric Energy [J] !Monthly  [Value,Min,Day,Hour,Minute,Max,Day,Hour,Minute]
138,9,PERIM,Zone Windows Total Transmitted Solar Radiation Energy [J] !Monthly  [Value,Min,Day,Hour,Minute,Max,Day,Hour,Minute]
139,9,CORE,Zone Windows Total Transmitted Solar Radiation Energy [J] !Monthly  [Value,Min,Day,Hour,Minute,Max,Day,Hour,Minute]
140,9,PERIM,Zone Mean Radiant Temperature [C] !Monthly [Value,Min,Day,Hour,Minute,Max,Day,Hour,Minute]
141,9,CORE,Zone Mean Radiant Temperature [C] !Monthly [Value,Min,Day,Hour,Minute,Max,Day,Hour,Minute]
142,9,PERIM,Zone Mean Air Temperature [C] !Monthly [Value,Min,Day,Hour,Minute,Max,Day,Hour,Minute]
143,9,PERIM,Zone Operative Temperature [C] !Monthly [Value,Min,Day,Hour,Minute,Max,Day,Hour,Minute]
144,9,CORE,Zone Mean Air Temperature [C] !Monthly [Value,Min,Day,Hour,Minute,Max,Day,Hour,Minute]
145,9,CORE,Zone Operative Temperature [C] !Monthly [Value,Min,Day,Hour,Minute,Max,Day,Hour,Minute]
146,9,PERIM,Zone Infiltration Total Heat Loss Energy [J] !Monthly  [Value,Min,Day,Hour,Minute,Max,Day,Hour,Minute]
147,9,PERIM,Zone Infiltration Total Heat Gain Energy [J] !Monthly  [Value,Min,Day,Hour,Minute,Max,Day,Hour,Minute]
148,9,PERIM,Zone Infiltration Air Change Rate [ach] !Monthly [Value,Min,Day,Hour,Minute,Max,Day,Hour,Minute]
149,9,CORE,Zone Infiltration Total Heat Loss Energy [J] !Monthly  [Value,Min,Day,Hour,Minute,Max,Day,Hour,Minute]
150,9,CORE,Zone Infiltration Total Heat Gain Energy [J] !Monthly  [Value,Min,Day,Hour,Minute,Max,Day,Hour,Minute]
151,9,CORE,Zone Infiltration Air Change Rate [ach] !Monthly [Value,Min,Day,Hour,Minute,Max,Day,Hour,Minute]
224,9,PERIM,Zone Air Temperature [C] !Monthly [Value,Min,Day,Hour,Minute,Max,Day,Hour,Minute]
225,9,PERIM,Zone Air Relative Humidity [%] !Monthly [Value,Min,Day,Hour,Minute,Max,Day,Hour,Minute]
258,9,CORE,Zone Air Temperature [C] !Monthly [Value,Min,Day,Hour,Minute,Max,Day,Hour,Minute]
259,9,CORE,Zone Air Relative Humidity [%] !Monthly [Value,Min,Day,Hour,Minute,Max,Day,Hour,Minute]
260,9,PERIM IDEAL LOADS AIR,Zone Ideal Loads Supply Air Total Heating Energy [J] !Monthly  [Value,Min,Day,Hour,Minute,Max,Day,Hour,Minute]
291,9,PERIM IDEAL LOADS AIR,Zone Ideal Loads Supply Air Total Cooling Energy [J] !Monthly  [Value,Min,Day,Hour,Minute,Max,Day,Hour,Minute]
322,9,PERIM IDEAL LOADS AIR,Zone Ideal Loads Zone Total Heating Energy [J] !Monthly  [Value,Min,Day,Hour,Minute,Max,Day,Hour,Minute]
323,9,CORE IDEAL LOADS AIR,Zone Ideal Loads Supply Air Total Heating Energy [J] !Monthly  [Value,Min,Day,Hour,Minute,Max,Day,Hour,Minute]
324,9,CORE IDEAL LOADS AIR,Zone Ideal Loads Supply Air Total Cooling Energy [J] !Monthly  [Value,Min,Day,Hour,Minute,Max,Day,Hour,Minute]
325,9,CORE IDEAL LOADS AIR,Zone Ideal Loads Zone Total Heating Energy [J] !Monthly  [Value,Min,Day,Hour,Minute,Max,Day,Hour,Minute]
408,9,DHW PERIM,Water Use Equipment Heating Energy [J] !Monthly  [Value,Min,Day,Hour,Minute,Max,Day,Hour,Minute]
461,9,DHW CORE,Water Use Equipment Heating Energy [J] !Monthly  [Value,Min,Day,Hour,Minute,Max,Day,Hour,Minute]
End of Data Dictionary
1,ARCHSIM,  37.57, 126.97,   9.00,  87.10
4,31, 1
8,51566344.1242644,7056.14998963659, 1,16,15,23520.4999654553, 1, 1,15
9,30990891.4370293,4240.68027326619, 1,16,15,14135.6009108873, 1, 1,15
71,34526772.2353694,0.0, 1, 1,15,42054.5337824232, 1,20,15
93,20750267.7994558,0.0, 1, 1,15,25274.3822161459, 1,20,15
125,41814222.1608097,6007.79054034618, 1, 1,15,30038.9527017309, 1,20,15
137,25129957.1749108,3610.62603087798, 1, 1,15,18053.1301543899, 1,20,15
138,300658513.482428,0.0, 1, 1,15,947188.892906852,27, 9,45
139,0.0,0.0, 1, 1,15,0.0, 1, 1,15
140,18.7786961869101,17.0894627998015,23, 7,60,21.4458125364938,27,11,15
141,19.8792634670887,19.4322164819236,15, 8,60,20.3428658631937, 8,23,60
142,20.0168464641621,19.9999999999998,15, 5,30,20.7923967111969, 4,10,60
143,19.3977713255361,18.5447313999007,23, 7,60,21.112223470908,27,10,60
144,20.0088677112569,19.9999999999999,31, 4,15,20.500967965638, 8,20,45
145,19.9440655891728,19.7161082409618,15, 8,60,20.3889067822304, 8,21,60
146,213775900.40337,26092.5520760788, 6,15,60,109799.190782607,23, 6,60
147,0.0,0.0, 1, 1,15,0.0, 1, 1,15
148,0.378878020805476,0.361702625940937, 6,15,60,0.394272397175303,23, 6,60
149,128677982.542453,15667.8217367369, 6,15,60,66092.0497556562,23, 6,60
150,0.0,0.0, 1, 1,15,0.0, 1, 1,15
151,0.378866204396468,0.361702889281246, 6,15,60,0.394270256287176,23, 6,60
224,20.0168464641621,19.9999999999998,15, 5,30,20.7923967111969, 4,10,60
225,17.4898743384367,6.60591345913284,14,19,60,34.9736653545731, 2,22,45
258,20.0088677112569,19.9999999999999,31, 4,15,20.500967965638, 8,20,45
259,17.6271489312231,6.18950940423871,14,19,60,35.2373682842723, 2,22,45
260,505390444.101574,0.0, 1,10,45,392796.263605017,23, 6,60
291,0.0,0.0, 1, 1,15,0.0, 1, 1,15
322,505390444.101585,0.0, 1,10,45,392796.263605017,23, 6,60
323,90441876.220951,0.0, 1,20,15,73284.2596563369,23, 6,60
324,0.0,0.0, 1, 1,15,0.0, 1, 1,15
325,90441876.2209536,0.0, 1,20,15,73284.2596563369,23, 6,60
408,103312071.482962,0.0, 1, 1,15,166632.373359615, 1, 7,15
461,62089590.5233766,0.0, 1, 1,15,100144.500844155, 1, 7,15
4,59, 2
8,46551773.5316293,7056.14998963659, 1, 9,15,23520.4999654553, 1, 1,15
9,27977181.3228281,4240.68027326619, 1, 9,15,14135.6009108873, 1, 1,15
71,31204464.066558,0.0, 1, 1,15,42054.5337824232, 1,20,15
93,18753591.6043803,0.0, 1, 1,15,25274.3822161459, 1,20,15
125,37776986.917697,6007.79054034618, 1, 1,15,30038.9527017309, 1,19,15
137,22703616.4821608,3610.62603087798, 1, 1,15,18053.1301543899, 1,19,15
138,335562177.451276,0.0, 1, 1,15,1177247.51304775,26, 9,45
139,0.0,0.0, 1, 1,15,0.0, 1, 1,15
140,19.5525747526638,17.340660919552, 8, 6,60,23.6731718749825,28,11,45
141,20.2124563044486,19.5370526084609, 4, 8,60,21.8557372701749,28,22,45
142,20.3432217610388,19.9999999999998, 1, 4,60,23.4719294365748,28,11,30
143,19.9478982568513,18.670330459776, 8, 6,60,23.5569623327401,28,11,30
144,20.1727906823687,19.9999999999999, 8, 6,15,21.9194879157513,28,20,60
145,20.1926234934087,19.7685263042305, 4, 8,60,21.8683863310297,28,20,60
146,171732744.013912,14649.9713486139,28, 9,48,100827.689158399, 8, 6,60
147,0.0,0.0, 1, 1,15,0.0, 1, 1,15
148,0.375451583606819,0.360684249640159,23,15,60,0.390520076765701, 8, 6,60
149,102582036.553386,8324.75836566857,28, 9,60,60622.9954935377, 8, 6,60
150,0.0,0.0, 1, 1,15,0.0, 1, 1,15
151,0.375236927982445,0.358923962256624,23,15,60,0.390519529567265, 8, 6,60
224,20.3432217610388,19.9999999999998, 1, 4,60,23.4719294365748,28,11,30
225,18.0911950454393,6.06533035379156, 9,17,60,37.9680946999063, 3,22,15
258,20.1727906823687,19.9999999999999, 8, 6,15,21.9194879157513,28,20,60
259,18.3449799025528,6.05959639582868, 9,17,60,38.3718737744501, 3,21,60
260,320532351.821125,0.0, 1, 9,60,352366.24012565, 8, 6,60
291,0.0,0.0, 1, 1,15,0.0, 1, 1,15
322,320532351.821132,0.0, 1, 9,60,352366.240125659, 8, 6,60
323,51066075.7071554,0.0, 1,20,15,61799.0414573063, 8, 6,60
324,0.0,0.0, 1, 1,15,0.0, 1, 1,15
325,51066076.7210699,0.0, 1,20,15,61799.0414573063, 8, 6,60
408,93314129.0813847,0.0, 1, 1,15,166632.373359615, 1, 7,15
461,56080920.4727273,0.0, 1, 1,15,100144.500844155, 1, 7,15
4,90, 3
8,51378180.1245407,7056.14998963659, 1, 9,15,23520.4999654553, 1, 1,15
9,30877806.6297422,4240.68027326619, 1, 9,15,14135.6009108873, 1, 1,15
71,34673963.1036079,0.0, 1, 1,15,42054.5337824232, 1,20,15
93,20838728.1372123,0.0, 1, 1,15,25274.3822161459, 1,20,15
125,41886315.6472939,6007.79054034618, 1, 1,15,30038.9527017309, 1,19,15
137,25173284.6872814,3610.62603087798, 1, 1,15,18053.1301543899, 1,19,15
138,535109532.019806,0.0, 1, 1,15,1423790.6371189,30, 8,60
139,0.0,0.0, 1, 1,15,0.0, 1, 1,15
140,22.3495166065992,17.7073569539672, 8, 6,60,30.0730530803809,30,11,45
141,22.3162023093603,19.7199460440111, 8, 7,60,26.7454602690968,30,22,60
142,22.2559165720802,19.9999999999999,28, 6,30,29.7866926528932,30,11,30
143,22.3027165893397,18.8536784769836, 8, 6,60,29.9146456219108,30,11,30
144,22.0361942825489,19.9999999999999, 8, 2,45,26.703582377614,30,19,60
145,22.1761982959546,19.8599730220055, 8, 7,60,26.6947910470433,30,21,45
146,159365444.013622,8350.44384764319,19,20, 7,82643.7406972144, 8, 6,60
147,0.0,0.0, 1, 1,15,0.0, 1, 1,15
148,0.370582806564937,0.359381776820335,19,15,60,0.383524042735979, 8, 6,60
149,95036459.6000239,4123.64971908912,19,20, 7,49924.892702555, 8, 6,60
150,0.0,0.0, 1, 1,15,0.0, 1, 1,15
151,0.370320438451244,0.356106999849708,19,15,60,0.383518706721074, 8, 6,60
224,22.2559165720802,19.9999999999999,28, 6,30,29.7866926528932,30,11,30
225,21.5917336514527,8.50947746599548, 7,16,30,39.3623467755368,13, 1,30
258,22.0361942825489,19.9999999999999, 8, 2,45,26.703582377614,30,19,60
259,21.7492675100423,8.43201861957115, 7,17,60,35.1961205222801,13, 1,30
260,100722608.850058,0.0, 1,10,30,286155.814599922, 8, 6,60
291,0.0,0.0, 1, 1,15,0.0, 1, 1,15
322,100722608.85006,0.0, 1,10,30,286155.814599922, 8, 6,60
323,7324147.46675143,0.0, 1, 1,15,45119.6237132234, 8, 6,60
324,0.0,0.0, 1, 1,15,0.0, 1, 1,15
325,7324147.78242795,0.0, 1, 1,15,45119.6237132261, 8, 6,60
408,103312071.482962,0.0, 1, 1,15,166632.373359615, 1, 7,15
461,62089590.5233766,0.0, 1, 1,15,100144.500844155, 1, 7,15
4,120, 4
8,50145705.9263509,7056.14998963659, 1,15,15,23520.4999654553, 1, 1,15
9,30137101.1420117,4240.68027326619, 1,15,15,14135.6009108873, 1, 1,15
71,33223081.6881143,0.0, 1, 1,15,42054.5337824232, 1,19,15
93,19966761.9507553,0.0, 1, 1,15,25274.3822161459, 1,19,15
125,40372352.4311266,6007.79054034618, 1, 1,15,30038.9527017309, 1,19,15
137,24263406.9275001,3610.62603087798, 1, 1,15,18053.1301543899, 1,19,15
138,679259655.209253,0.0, 1, 1,15,1588252.16113238,29, 8,60
139,0.0,0.0, 1, 1,15,0.0, 1, 1,15
140,29.0026725302458,19.3157700957258, 1, 7,15,41.0337919719655,12,11,30
141,28.488681459341,22.8268700878709, 5, 7,60,36.2203697905769,12,20,45
142,28.5146695223163,19.9999999999999, 1, 6,45,40.7841257444749,11,11,15
143,28.758671026281,19.6578850478629, 1, 7,15,40.8691000250254,11,11,30
144,28.163126164566,22.4353207751643, 2, 7,60,36.0496375804172,12,19,45
145,28.3259038119536,22.6455005463918, 5, 8,30,36.1199457262715,12,19,60
146,161891514.101176,10208.319412142, 7, 7,33,90958.2824298662,11,22,60
147,0.0,0.0, 1, 1,15,0.0, 1, 1,15
148,0.369905482057648,0.36264859380412, 8,15,60,0.380208094242265,12,10,22
149,96276075.6353043,5161.6499804555, 7,10, 3,56066.0086592364,13, 2,60
150,0.0,0.0, 1, 1,15,0.0, 1, 1,15
151,0.369503454389914,0.358179779307688, 8,15,60,0.377223669235636, 1, 2,60
224,28.5146695223163,19.9999999999999, 1, 6,45,40.7841257444749,11,11,15
225,27.0627628103893,10.2048975416559,11,16,60,53.1875673116998,20,23,45
258,28.163126164566,22.4168694423579, 1, 7,60,36.0496375804172,12,19,45
259,26.9046097092532,12.3912272717612,18,17,15,44.4691676595943,20,24,30
260,2569711.74025802,0.0, 1, 1,15,118415.641582462, 1, 7,15
291,0.0,0.0, 1, 1,15,0.0, 1, 1,15
322,2569711.74025808,0.0, 1, 1,15,118415.641582462, 1, 7,15
323,0.0,0.0, 1, 1,15,0.0, 1, 1,15
324,0.0,0.0, 1, 1,15,0.0, 1, 1,15
325,0.0,0.0, 1, 1,15,0.0, 1, 1,15
408,99979424.0157694,0.0, 1, 1,15,166632.373359615, 1, 6,15
461,60086700.5064934,0.0, 1, 1,15,100144.500844155, 1, 6,15
4,151, 5
8,51378180.1245407,7056.14998963659, 1, 8,15,23520.4999654553, 1, 1,15
9,30877806.6297422,4240.68027326619, 1, 8,15,14135.6009108873, 1, 1,15
71,34673963.1036079,0.0, 1, 1,15,42054.5337824232, 1,19,15
93,20838728.1372123,0.0, 1, 1,15,25274.3822161459, 1,19,15
125,41886315.6472939,6007.79054034618, 1, 1,15,30038.9527017309, 1,18,15
137,25173284.6872814,3610.62603087798, 1, 1,15,18053.1301543899, 1,18,15
138,730691078.468255,0.0, 1, 1,15,1549965.09577543,16, 8,60
139,0.0,0.0, 1, 1,15,0.0, 1, 1,15
140,34.2855773017013,23.4023104144132,30, 6,15,44.5851718005253,26,11,45
141,33.7773512952661,25.9951232819505,30, 7,15,39.5342144770116,26,22,30
142,33.7813261034371,23.1040493486841,30, 5,60,44.1872881634739,26,11,30
143,34.0334517025692,23.2717862447744,30, 5,60,44.3802306670179,26,11,45
144,33.44081994408,25.8180719884764,30, 5,60,39.3873996386511,26,19,60
145,33.6090856196731,25.9328769704694,30, 6,60,39.4384876740127,26,21,60
146,173012104.08359,10529.5388713118,12, 7,33,96134.0888781192, 6,10,45
147,0.0,0.0, 1, 1,15,0.0, 1, 1,15
148,0.369223984918834,0.359379477467093,25,15,60,0.383960507114398, 6,10, 7
149,103859466.009217,4399.39226994934,21,19,60,61075.5379427796, 8, 1,60
150,0.0,0.0, 1, 1,15,0.0, 1, 1,15
151,0.36883638727506,0.35540327352163,25,15,60,0.380572238391167, 6, 6,50
224,33.7813261034371,23.1040493486841,30, 5,60,44.1872881634739,26,11,30
225,30.5060712898778,10.5823737906491, 8,15,45,61.5637553569333,29, 4,30
258,33.44081994408,25.8180719884764,30, 5,60,39.3873996386511,26,19,60
259,30.1846202383089,13.0597145599514, 8,16,60,53.7494398492037,28,15,30
260,0.0,0.0, 1, 1,15,0.0, 1, 1,15
291,0.0,0.0, 1, 1,15,0.0, 1, 1,15
322,0.0,0.0, 1, 1,15,0.0, 1, 1,15
323,0.0,0.0, 1, 1,15,0.0, 1, 1,15
324,0.0,0.0, 1, 1,15,0.0, 1, 1,15
325,0.0,0.0, 1, 1,15,0.0, 1, 1,15
408,103312071.482962,0.0, 1, 1,15,166632.373359615, 1, 6,15
461,62089590.5233766,0.0, 1, 1,15,100144.500844155, 1, 6,15
4,181, 6
8,49769377.9269036,7056.14998963659, 1, 8,15,23520.4999654553, 1, 1,15
9,29910931.5274375,4240.68027326619, 1, 8,15,14135.6009108873, 1, 1,15
71,33517463.4245913,0.0, 1, 1,15,42054.5337824232, 1,19,15
93,20143682.6262683,0.0, 1, 1,15,25274.3822161459, 1,19,15
125,40516539.4040949,6007.79054034618, 1, 1,15,30038.9527017309, 1,18,15
137,24350061.9522412,3610.62603087798, 1, 1,15,18053.1301543899, 1,18,15
138,743418424.809718,0.0, 1, 1,15,1654543.38299196, 1, 8,45
139,0.0,0.0, 1, 1,15,0.0, 1, 1,15
140,39.8715091093442,29.9758752562941,15, 6,15,51.9739046459475,10,11,45
141,39.1829936434327,32.0652497621436,15, 7,15,46.9025791920224,11,20,60
142,39.3572715910804,29.6272325451368,15, 5,60,51.5224130496334,10,11,30
143,39.6143903502123,29.8087488422497,15, 5,60,51.7373740857054,10,11,45
144,38.8312303252139,31.856714112437,15, 5,60,46.7070937670904,11,19,45
145,39.0071119843233,31.99415546228,15, 6,60,46.780001956801,11,20,45
146,174060381.649608,12805.447734233, 8, 7,32,95221.1175885676,11,10,30
147,0.0,0.0, 1, 1,15,0.0, 1, 1,15
148,0.369286137745619,0.358935947981682,14,15,60,0.381270275761006, 3,10,22
149,103016426.444545,7378.5536434119,15, 9,15,55969.5705708365,12, 6,60
150,0.0,0.0, 1, 1,15,0.0, 1, 1,15
151,0.368686309331633,0.356999808011193,15,15,60,0.381763131409106,12, 3,37
224,39.3572715910804,29.6272325451368,15, 5,60,51.5224130496334,10,11,30
225,31.7292150116753,10.0064576801148, 1,14,60,62.9529381811095,14, 5,60
258,38.8312303252139,31.856714112437,15, 5,60,46.7070937670904,11,19,45
259,31.6609858300824,12.3078893051892, 8,16,45,55.5569037924511,14, 5,60
260,0.0,0.0, 1, 1,15,0.0, 1, 1,15
291,0.0,0.0, 1, 1,15,0.0, 1, 1,15
322,0.0,0.0, 1, 1,15,0.0, 1, 1,15
323,0.0,0.0, 1, 1,15,0.0, 1, 1,15
324,0.0,0.0, 1, 1,15,0.0, 1, 1,15
325,0.0,0.0, 1, 1,15,0.0, 1, 1,15
408,99979424.0157694,0.0, 1, 1,15,166632.373359615, 1, 6,15
461,60086700.5064934,0.0, 1, 1,15,100144.500844155, 1, 6,15
4,212, 7
8,51754508.123988,7056.14998963659, 1,15,15,23520.4999654553, 1, 1,15
9,31103976.2443164,4240.68027326619, 1,15,15,14135.6009108873, 1, 1,15
71,34379581.367131,0.0, 1, 1,15,42054.5337824232, 1,19,15
93,20661807.4616993,0.0, 1, 1,15,25274.3822161459, 1,19,15
125,41742128.6743256,6007.79054034618, 1, 1,15,30038.9527017309, 1,19,15
137,25086629.6625403,3610.62603087798, 1, 1,15,18053.1301543899, 1,19,15
138,569134395.281781,0.0, 1, 1,15,1430169.20348202,12, 9,30
139,0.0,0.0, 1, 1,15,0.0, 1, 1,15
140,28.1061586437298,24.1246699052387,12, 4,30,41.8570148633032, 1,12,30
141,26.2541356281297,24.580228855315,17,22,15,37.0035520421244, 1,14,15
142,26.8541293456182,23.9627386887537,17,14,15,41.5150568447825, 1,12,15
143,27.480143994674,24.0924819672409,12, 4,30,41.6845734996119, 1,12,15
144,25.6594331260353,23.9437826540879,17,14,15,36.9101847031504, 1,13,60
145,25.9567843770825,24.2942322601992,17,21,60,36.9209095866408, 1,13,60
146,35580239.3959621,0.0, 1,14, 2,61355.8964281424, 1,10,30
147,22809641.5316131,0.0, 1, 1,15,52789.9766811069,30,14,30
148,0.351905004676988,0.341542088904026,20,15,60,0.368882206082986, 1,10, 7
149,15343205.4686617,0.0, 1,14, 2,35936.8470171881, 1, 3,60
150,13610033.3236314,0.0, 1, 1,15,30651.1102194912,30,14,45
151,0.350510091353028,0.341536426705986,20,15,60,0.366259815280528, 1, 1,15
224,26.8541293456182,23.3792175246698, 2,14, 5,41.5150568447825, 1,12,15
225,68.9539291916682,30.3472020691395,12,11,30,90.717448416873, 3, 5,60
258,25.6594331260353,23.5467799438738,24,14, 3,36.9101847031504, 1,13,60
259,72.9040497657322,43.1355116615669, 1,13,60,89.8635555451823, 2,14, 3
260,0.0,0.0, 1, 1,15,0.0, 1, 1,15
291,515817868.810777,0.0, 1, 1,15,2387087.17265443, 1,14,45
322,5.472413135976240E-006,0.0, 1, 1,15,2.230535756098107E-007, 1,14,45
323,0.0,0.0, 1, 1,15,0.0, 1, 1,15
324,188700667.22714,0.0, 1, 1,15,1233555.27522626, 1,14,45
325,1.539171137210360E-006,0.0, 1, 1,15,6.834852683823556E-008, 1,14,45
408,103312071.482962,0.0, 1, 1,15,166632.373359615, 1, 6,15
461,62089590.5233766,0.0, 1, 1,15,100144.500844155, 1, 6,15
4,243, 8
8,51378180.1245407,7056.14998963659, 1, 8,15,23520.4999654553, 1, 1,15
9,30877806.6297422,4240.68027326619, 1, 8,15,14135.6009108873, 1, 1,15
71,34673963.1036079,0.0, 1, 1,15,42054.5337824232, 1,19,15
93,20838728.1372123,0.0, 1, 1,15,25274.3822161459, 1,19,15
125,41886315.6472939,6007.79054034618, 1, 1,15,30038.9527017309, 1,18,15
137,25173284.6872814,3610.62603087798, 1, 1,15,18053.1301543899, 1,18,15
138,643264584.840631,0.0, 1, 1,15,1413181.01829087,17, 9,15
139,0.0,0.0, 1, 1,15,0.0, 1, 1,15
140,28.437632284105,23.2666655481861,26, 6,60,40.0692314143744, 7,11,60
141,26.2053798072075,24.5313713319645,26, 7,30,30.6148544284332, 7,14,15
142,27.0431626297364,23.0594496736803,26, 6,60,40.0613374495684, 7,11,45
143,27.7403974569207,23.1630576109332,26, 6,60,40.0499789763364, 7,11,45
144,25.5736769009692,23.9520445285051,25,14,15,30.7661579645848, 7,13,60
145,25.8895283540883,24.4060143734064,25,21,60,30.6183455513467, 7,13,60
146,37641802.0437678,0.0, 1,14, 1,57587.9117067372,27,11,45
147,24418655.6823833,0.0, 1, 1,15,52188.8298101803, 7,16,15
148,0.351563933263463,0.339124559797594, 7,15,60,0.364306590340035,28,10,52
149,15011834.4477255,0.0, 1,13,45,20494.0668977626,28, 6,60
150,14631077.9147559,0.0, 1, 1,15,31155.2776108303, 7,15,60
151,0.349853666389962,0.339116488304404, 7,15,60,0.358452917682261,28, 7, 7
224,27.0431626297364,23.0594496736803,26, 6,60,40.0613374495684, 7,11,45
225,67.1303289039556,33.7722368359756,28,11,30,92.609315493954, 2, 5,60
258,25.5736769009692,23.556127887068,25,14, 5,30.7661579645848, 7,13,60
259,71.9218083689864,49.5614693940357,30,13,60,93.295022071187, 2, 5,60
260,0.0,0.0, 1, 1,15,0.0, 1, 1,15
291,569084564.087919,0.0, 1, 1,15,2040017.47907378, 7,14,45
322,5.945390739725553E-006,0.0, 1, 1,15,1.686203177087009E-007,17,14,60
323,0.0,0.0, 1, 1,15,0.0, 1, 1,15
324,196587949.800944,0.0, 1, 1,15,568402.891236884, 7,14,45
325,1.583725577347650E-006,0.0, 1, 1,15,4.072262527188286E-008, 6,14,45
408,103312071.482962,0.0, 1, 1,15,166632.373359615, 1, 6,15
461,62089590.5233766,0.0, 1, 1,15,100144.500844155, 1, 6,15
4,273, 9
8,49957541.9266272,7056.14998963659, 1, 8,15,23520.4999654553, 1, 1,15
9,30024016.3347246,4240.68027326619, 1, 8,15,14135.6009108873, 1, 1,15
71,33370272.5563528,0.0, 1, 1,15,42054.5337824232, 1,19,15
93,20055222.2885118,0.0, 1, 1,15,25274.3822161459, 1,19,15
125,40444445.9176107,6007.79054034618, 1, 1,15,30038.9527017309, 1,18,15
137,24306734.4398706,3610.62603087798, 1, 1,15,18053.1301543899, 1,18,15
138,490098311.774214,0.0, 1, 1,15,1472354.30692423,16, 9,15
139,0.0,0.0, 1, 1,15,0.0, 1, 1,15
140,26.5733839539519,22.3791153146877,30, 7,30,34.9696518219414, 7,14,15
141,25.3769048845342,23.9065693821883,30, 7,60,28.2784545155443, 7,14,15
142,25.552222811775,22.1365479717533,30, 7,30,35.0098434122837,10,11,30
143,26.0628033828634,22.2578316432205,30, 7,30,34.9554582040434,10,11,30
144,24.907507680527,23.7750052185183,30, 7,60,28.4089563903696, 7,13,60
145,25.1422062825306,23.8407873003533,30, 7,60,28.2886004780899, 7,13,60
146,54889736.8925378,0.0, 1,14, 2,53277.831754226, 9,11,45
147,2633493.58189999,0.0, 1, 1,15,25071.8460648034,20,18,60
148,0.354702937807456,0.342572868676704, 6,15,60,0.36704897372024,16,10,20
149,29395722.3171319,0.0, 1,14, 1,29766.7149236674,15,24,60
150,1587062.664748,0.0, 1, 1,15,16214.9316105211,20,18,60
151,0.353950334344494,0.342576269568128, 6,15,60,0.362839405098215,30,24,60
224,25.552222811775,22.1365479717533,30, 7,30,35.0098434122837,10,11,30
225,60.2279324742826,25.2641533679208,16,11,30,87.5789712510991, 9, 6,60
258,24.907507680527,23.564797256015,12,14, 3,28.4089563903696, 7,13,60
259,61.5838696429258,33.6943010954336,16,13,60,84.8095505286842, 9, 6,60
260,0.0,0.0, 1, 1,15,0.0, 1, 1,15
291,329282347.574318,0.0, 1, 1,15,1346801.2340403, 7,14,45
322,7.323259351801800E-006,0.0, 1, 1,15,1.452917786082253E-007,11,14,45
323,0.0,0.0, 1, 1,15,0.0, 1, 1,15
324,109699010.029277,0.0, 1, 1,15,337745.977545993, 7,14,45
325,2.371150421186897E-006,0.0, 1, 1,15,2.706315171963070E-008,10,14,45
408,99979424.0157694,0.0, 1, 1,15,166632.373359615, 1, 6,15
461,60086700.5064935,0.0, 1, 1,15,100144.500844155, 1, 6,15
4,304,10
8,51566344.1242644,7056.14998963659, 1,15,15,23520.4999654553, 1, 1,15
9,30990891.4370293,4240.68027326619, 1,15,15,14135.6009108873, 1, 1,15
71,34526772.2353694,0.0, 1, 1,15,42054.5337824232, 1,19,15
93,20750267.7994558,0.0, 1, 1,15,25274.3822161459, 1,19,15
125,41814222.1608097,6007.79054034618, 1, 1,15,30038.9527017309, 1,19,15
137,25129957.1749108,3610.62603087798, 1, 1,15,18053.1301543899, 1,19,15
138,360870874.66727,0.0, 1, 1,15,1196490.00305564,12, 9,30
139,0.0,0.0, 1, 1,15,0.0, 1, 1,15
140,25.4453328920139,18.8825706984506,24, 7,30,33.1583437675491, 5,11,30
141,25.7266976518477,21.4142646986708,29, 8,45,31.0211377748479, 5,22,30
142,25.2172637369568,19.9999999999999,24, 3,60,33.1104216788315, 5,11,15
143,25.3312983144854,19.4412853492253,24, 7,30,33.1064981533816, 5,11,15
144,25.6174729299736,21.2882384555485,24, 9,60,31.133562114314, 5,19,60
145,25.6720852909106,21.3883834412912,29, 7,60,31.0579841730236, 5,21,60
146,108498813.686809,0.0,14,18,60,64086.965474804,15,24,60
147,2302.60170385281,0.0, 1, 1,15,2302.60170385281,14,18,60
148,0.362095888589948,0.354288341681011,22,15,60,0.371060828090142,31, 9,52
149,68184734.3110767,0.0,14,18,60,41963.6907781987,15,24,60
150,2425.98222359514,0.0, 1, 1,15,2425.98222359514,14,18,60
151,0.362593286174567,0.352383399228397,22,15,60,0.371678671458995,24, 6,60
224,25.2172637369568,19.9999999999999,24, 3,60,33.1104216788315, 5,11,15
225,38.8937172216503,16.4084308337673,19,15,15,69.0121656594431,28,24,30
258,25.6174729299736,21.2822875980924,24, 9,60,31.133562114314, 5,19,60
259,37.9510068540607,17.6391274661987,19,15,45,62.9807618525221,28,24,30
260,6161942.95013256,0.0, 1, 1,15,120447.001709771,24, 7,30
291,0.0,0.0, 1, 1,15,0.0, 1, 1,15
322,6161942.95013275,0.0, 1, 1,15,120447.001709771,24, 7,30
323,0.0,0.0, 1, 1,15,0.0, 1, 1,15
324,0.0,0.0, 1, 1,15,0.0, 1, 1,15
325,0.0,0.0, 1, 1,15,0.0, 1, 1,15
408,103312071.482962,0.0, 1, 1,15,166632.373359615, 1, 6,15
461,62089590.5233766,0.0, 1, 1,15,100144.500844155, 1, 6,15
4,334,11
8,49769377.9269036,7056.14998963659, 1, 9,15,23520.4999654553, 1, 1,15
9,29910931.5274375,4240.68027326619, 1, 9,15,14135.6009108873, 1, 1,15
71,33517463.4245913,0.0, 1, 1,15,42054.5337824232, 1,20,15
93,20143682.6262683,0.0, 1, 1,15,25274.3822161459, 1,20,15
125,40516539.4040949,6007.79054034618, 1, 1,15,30038.9527017309, 1,19,15
137,24350061.9522412,3610.62603087798, 1, 1,15,18053.1301543899, 1,19,15
138,271567223.602935,0.0, 1, 1,15,860805.678946536, 6, 9,30
139,0.0,0.0, 1, 1,15,0.0, 1, 1,15
140,20.1484744586699,17.4995275075265,27, 7,60,24.8213370121833, 7,15,45
141,20.8064434913027,19.5935770409436,11, 8,45,23.8721167283337, 7,23,60
142,20.6318389247573,19.9999999999998,10, 4,60,24.7184112875163, 7,15,45
143,20.3901566917136,18.7497637537632,27, 7,60,24.7698741498498, 7,15,45
144,20.7631127442914,19.9999999999999,23,10,15,24.1751466861052, 7,22,60
145,20.7847781177971,19.7967885204718,11, 8,45,24.0138978560691, 7,23,60
146,123091384.853563,8584.41571683084,18,20, 7,82224.0632015102,30,24,60
147,0.0,0.0, 1, 1,15,0.0, 1, 1,15
148,0.366150144612112,0.354011241923428, 5,15,60,0.381071308855977,23, 8,60
149,74849466.560136,5241.02540228618, 7,13,60,48323.0838550692,23, 7,60
150,0.0,0.0, 1, 1,15,0.0, 1, 1,15
151,0.366314167441381,0.352283002768742, 6,15,60,0.381079598301609,23, 8,60
224,20.6318389247573,19.9999999999998,10, 4,60,24.7184112875163, 7,15,45
225,36.0174457228938,15.3855636741892,23,13,15,59.9462520723505,19, 9,15
258,20.7631127442914,19.9999999999999,23,10,15,24.1751466861052, 7,22,60
259,35.6582031367133,15.3656281509538,23,13,15,60.3981375685421,19,11,30
260,191664469.640898,0.0, 1, 1,15,296888.087444675,27, 6,60
291,0.0,0.0, 1, 1,15,0.0, 1, 1,15
322,191664469.640903,0.0, 1, 1,15,296888.087444681,27, 6,60
323,18769655.3067718,0.0, 1, 1,15,43681.9959077113,23, 6,60
324,0.0,0.0, 1, 1,15,0.0, 1, 1,15
325,18769655.6085,0.0, 1, 1,15,43681.9959077137,23, 6,60
408,99979424.0157694,0.0, 1, 1,15,166632.373359615, 1, 7,15
461,60086700.5064935,0.0, 1, 1,15,100144.500844155, 1, 7,15
4,365,12
8,51754508.123988,7056.14998963659, 1, 9,15,23520.4999654553, 1, 1,15
9,31103976.2443164,4240.68027326619, 1, 9,15,14135.6009108873, 1, 1,15
71,34379581.367131,0.0, 1, 1,15,42054.5337824232, 1,20,15
93,20661807.4616993,0.0, 1, 1,15,25274.3822161459, 1,20,15
125,41742128.6743256,6007.79054034618, 1, 1,15,30038.9527017309, 1,19,15
137,25086629.6625403,3610.62603087798, 1, 1,15,18053.1301543899, 1,19,15
138,262304841.341743,0.0, 1, 1,15,738705.065022302,31, 9,30
139,0.0,0.0, 1, 1,15,0.0, 1, 1,15
140,18.7751416181089,17.0859324129328,16, 8,15,21.0031173632599,13,10,45
141,19.8656406536407,19.4332675064313,17, 8,60,20.2535883659744,28,23,45
142,20.0037663754636,19.9999999999997,17, 6,45,20.515883867374,13,10,45
143,19.3894539967862,18.5429662064664,16, 8,15,20.759500615317,13,10,45
144,20.0092500550719,19.9999999999999,16, 8,15,20.4477942491835,28,20,60
145,19.9374453543564,19.7166337532156,17, 8,60,20.322669150837,28,20,60
146,197254600.792979,29405.3766170613,11,15,60,111677.599200382,31, 9,60
147,0.0,0.0, 1, 1,15,0.0, 1, 1,15
148,0.376417173986587,0.361627227168609,29,15,60,0.394590433985651,31,24,60
149,118764774.831442,17747.3442585402,11,15,60,66909.7622943015,31, 9,60
150,0.0,0.0, 1, 1,15,0.0, 1, 1,15
151,0.376422674182988,0.361627749460193,29,15,60,0.394587111252996,31,24,60
224,20.0037663754636,19.9999999999997,17, 6,45,20.515883867374,13,10,45
225,20.17450835663,7.74931563176795,16,19,60,40.239317550073,25, 4,30
258,20.0092500550719,19.9999999999999,16, 8,15,20.4477942491835,28,20,60
259,20.2617726287805,7.38735622103376,16,19,60,40.8518447542255,25, 4,15
260,476422978.319554,0.0, 1,10,15,388585.833505298,18, 6,60
291,0.0,0.0, 1, 1,15,0.0, 1, 1,15
322,476422978.319565,0.0, 1,10,15,388585.833505307,18, 6,60
323,81430349.0758164,0.0, 6,19,15,71673.6448658123,17, 8,45
324,0.0,0.0, 1, 1,15,0.0, 1, 1,15
325,81430349.0758188,0.0, 6,19,15,71673.6448658142,17, 8,45
408,103312071.482962,0.0, 1, 1,15,166632.373359615, 1, 7,15
461,62089590.5233766,0.0, 1, 1,15,100144.500844155, 1, 7,15
End of Data
 Number of Records Written=         384
