Program Version,EnergyPlus, Version 8.4.0-09f5359d8a, YMD=2023.08.02 14:39
1,5,Environment Title[],Latitude[deg],Longitude[deg],Time Zone[],Elevation[m]
2,6,Day of Simulation[],Month[],Day of Month[],DST Indicator[1=yes 0=no],Hour[],StartMinute[],EndMinute[],DayType
3,3,Cumulative Day of Simulation[],Month[],Day of Month[],DST Indicator[1=yes 0=no],DayType  ! When Daily Report Variables Requested
4,2,Cumulative Days of Simulation[],Month[]  ! When Monthly Report Variables Requested
5,1,Cumulative Days of Simulation[] ! When Run Period Report Variables Requested
8,9,PERIM,Zone People Total Heating Energy [J] !Monthly  [Value,Min,Day,Hour,Minute,Max,Day,Hour,Minute]
9,9,CORE,Zone People Total Heating Energy [J] !Monthly  [Value,Min,Day,Hour,Minute,Max,Day,Hour,Minute]
71,9,PERIM,Zone Lights Electric Energy [J] !Monthly  [Value,Min,Day,Hour,Minute,Max,Day,Hour,Minute]
93,9,CORE,Zone Lights Electric Energy [J] !Monthly  [Value,Min,Day,Hour,Minute,Max,Day,Hour,Minute]
125,9,PERIM,Zone Electric Equipment Electric Energy [J] !Monthly  [Value,Min,Day,Hour,Minute,Max,Day,Hour,Minute]
137,9,CORE,Zone Electric Equipment Electric Energy [J] !Monthly  [Value,Min,Day,Hour,Minute,Max,Day,Hour,Minute]
138,9,PERIM,Zone Windows Total Transmitted Solar Radiation Energy [J] !Monthly  [Value,Min,Day,Hour,Minute,Max,Day,Hour,Minute]
139,9,CORE,Zone Windows Total Transmitted Solar Radiation Energy [J] !Monthly  [Value,Min,Day,Hour,Minute,Max,Day,Hour,Minute]
140,9,PERIM,Zone Mean Radiant Temperature [C] !Monthly [Value,Min,Day,Hour,Minute,Max,Day,Hour,Minute]
141,9,CORE,Zone Mean Radiant Temperature [C] !Monthly [Value,Min,Day,Hour,Minute,Max,Day,Hour,Minute]
142,9,PERIM,Zone Mean Air Temperature [C] !Monthly [Value,Min,Day,Hour,Minute,Max,Day,Hour,Minute]
143,9,PERIM,Zone Operative Temperature [C] !Monthly [Value,Min,Day,Hour,Minute,Max,Day,Hour,Minute]
144,9,CORE,Zone Mean Air Temperature [C] !Monthly [Value,Min,Day,Hour,Minute,Max,Day,Hour,Minute]
145,9,CORE,Zone Operative Temperature [C] !Monthly [Value,Min,Day,Hour,Minute,Max,Day,Hour,Minute]
146,9,PERIM,Zone Infiltration Total Heat Loss Energy [J] !Monthly  [Value,Min,Day,Hour,Minute,Max,Day,Hour,Minute]
147,9,PERIM,Zone Infiltration Total Heat Gain Energy [J] !Monthly  [Value,Min,Day,Hour,Minute,Max,Day,Hour,Minute]
148,9,PERIM,Zone Infiltration Air Change Rate [ach] !Monthly [Value,Min,Day,Hour,Minute,Max,Day,Hour,Minute]
149,9,CORE,Zone Infiltration Total Heat Loss Energy [J] !Monthly  [Value,Min,Day,Hour,Minute,Max,Day,Hour,Minute]
150,9,CORE,Zone Infiltration Total Heat Gain Energy [J] !Monthly  [Value,Min,Day,Hour,Minute,Max,Day,Hour,Minute]
151,9,CORE,Zone Infiltration Air Change Rate [ach] !Monthly [Value,Min,Day,Hour,Minute,Max,Day,Hour,Minute]
224,9,PERIM,Zone Air Temperature [C] !Monthly [Value,Min,Day,Hour,Minute,Max,Day,Hour,Minute]
225,9,PERIM,Zone Air Relative Humidity [%] !Monthly [Value,Min,Day,Hour,Minute,Max,Day,Hour,Minute]
258,9,CORE,Zone Air Temperature [C] !Monthly [Value,Min,Day,Hour,Minute,Max,Day,Hour,Minute]
259,9,CORE,Zone Air Relative Humidity [%] !Monthly [Value,Min,Day,Hour,Minute,Max,Day,Hour,Minute]
260,9,PERIM IDEAL LOADS AIR,Zone Ideal Loads Supply Air Total Heating Energy [J] !Monthly  [Value,Min,Day,Hour,Minute,Max,Day,Hour,Minute]
291,9,PERIM IDEAL LOADS AIR,Zone Ideal Loads Supply Air Total Cooling Energy [J] !Monthly  [Value,Min,Day,Hour,Minute,Max,Day,Hour,Minute]
322,9,PERIM IDEAL LOADS AIR,Zone Ideal Loads Zone Total Heating Energy [J] !Monthly  [Value,Min,Day,Hour,Minute,Max,Day,Hour,Minute]
323,9,CORE IDEAL LOADS AIR,Zone Ideal Loads Supply Air Total Heating Energy [J] !Monthly  [Value,Min,Day,Hour,Minute,Max,Day,Hour,Minute]
324,9,CORE IDEAL LOADS AIR,Zone Ideal Loads Supply Air Total Cooling Energy [J] !Monthly  [Value,Min,Day,Hour,Minute,Max,Day,Hour,Minute]
325,9,CORE IDEAL LOADS AIR,Zone Ideal Loads Zone Total Heating Energy [J] !Monthly  [Value,Min,Day,Hour,Minute,Max,Day,Hour,Minute]
408,9,DHW PERIM,Water Use Equipment Heating Energy [J] !Monthly  [Value,Min,Day,Hour,Minute,Max,Day,Hour,Minute]
461,9,DHW CORE,Water Use Equipment Heating Energy [J] !Monthly  [Value,Min,Day,Hour,Minute,Max,Day,Hour,Minute]
End of Data Dictionary
1,ARCHSIM,  37.57, 126.97,   9.00,  87.10
4,31, 1
8,51566344.1267555,7056.14998997754, 1,16,15,23520.4999665918, 1, 1,15
9,30990891.4399051,4240.6802736597, 1,16,15,14135.600912199, 1, 1,15
71,34526772.2370379,0.0, 1, 1,15,42054.5337844553, 1,20,15
93,20750267.8013813,0.0, 1, 1,15,25274.3822184912, 1,20,15
125,41814222.1628297,6007.79054063648, 1, 1,15,30038.9527031824, 1,20,15
137,25129957.1772427,3610.62603121303, 1, 1,15,18053.1301560651, 1,20,15
138,695662386.678817,0.0, 1, 1,15,2044985.38066222,14,12,30
139,0.0,0.0, 1, 1,15,0.0, 1, 1,15
140,22.1281300943688,17.3197506450797,14, 8,45,33.8102901226093, 4,14,15
141,21.715396467966,19.5178906482533,22, 8,60,25.1326738696361, 4,22,45
142,22.3306218497937,19.9999999999998,24, 5,45,33.7615821722985, 4,14,30
143,22.2293759720812,18.6598753225398,14, 8,45,33.7254973505465, 4,14,15
144,21.2637866993732,19.9999999999999,14, 3,15,24.8643251494764, 4,20,45
145,21.4895915836696,19.7589453241266,22, 8,60,24.963594174879, 4,22,15
146,235480083.72335,9792.79244682518, 4,10,47,123665.129073995,14,14,30
147,0.0,0.0, 1, 1,15,0.0, 1, 1,15
148,0.38151355266093,0.368175151974089, 5,18,60,0.400538778872593,14,14,15
149,135443484.80761,4424.98380191146, 6,14, 3,65664.116683135,23, 6,60
150,0.0,0.0, 1, 1,15,0.0, 1, 1,15
151,0.380153586113713,0.364145304200295, 6,15,60,0.393921998928597,23, 6,60
224,22.3306218497937,19.9999999999998,24, 5,45,34.0258712685567, 4,14,15
225,16.5314856562268,4.48762316751504,16,14,15,34.6505540965237, 2,24,30
258,21.2637866993732,19.9999999999999,14, 3,15,24.8643251494764, 4,20,45
259,16.9093211679583,5.81840671057331,14,19,60,33.0340099784142, 2, 7,60
260,235138048.212247,0.0, 1, 1,15,354068.141959981,14, 8,45
291,0.0,0.0, 1, 1,15,0.0, 1, 1,15
322,235138048.212252,0.0, 1, 1,15,354068.141959994,14, 8,45
323,19774450.7881387,0.0, 1, 1,15,63930.5616621394,22, 8,60
324,0.0,0.0, 1, 1,15,0.0, 1, 1,15
325,19774450.7881393,0.0, 1, 1,15,63930.5616621394,22, 8,60
408,103312071.487954,0.0, 1, 1,15,166632.373367667, 1, 7,15
461,62089590.5291376,0.0, 1, 1,15,100144.500853448, 1, 7,15
4,59, 2
8,46551773.5338782,7056.14998997754, 1, 9,15,23520.4999665918, 1, 1,15
9,27977181.3254242,4240.6802736597, 1, 9,15,14135.600912199, 1, 1,15
71,31204464.0680659,0.0, 1, 1,15,42054.5337844553, 1,20,15
93,18753591.6061205,0.0, 1, 1,15,25274.3822184912, 1,20,15
125,37776986.9195222,6007.79054063648, 1, 1,15,30038.9527031824, 1,19,15
137,22703616.4842675,3610.62603121303, 1, 1,15,18053.1301560651, 1,19,15
138,624588415.585781,0.0, 1, 1,15,2026523.1342314, 9,12,30
139,0.0,0.0, 1, 1,15,0.0, 1, 1,15
140,22.9579076254536,17.5159422210649, 4, 7,30,34.9429666121729,28,14,15
141,22.3889015697909,19.5632918343207, 4, 8,60,27.0523012480388,28,22,60
142,23.0143555987692,19.9999999999998, 8, 6,15,34.9363472338579,28,14,15
143,22.9861316121114,18.7579711105324, 4, 7,30,34.9396569230154,28,14,15
144,21.9722099583913,19.9999999999999,11, 6,15,26.80120230582,28,20,45
145,22.1805557640911,19.7816459171603, 4, 8,60,26.8905254558559,28,22,30
146,194778460.420582,7206.95178397213,24,11,17,104159.188649128, 8,14,30
147,0.0,0.0, 1, 1,15,0.0, 1, 1,15
148,0.378500892048995,0.367257678344223,27,10,52,0.396079970140776, 9,14,15
149,111812805.141815,4528.12439332246,24,11,29,64457.2731448866, 8, 2,60
150,0.0,0.0, 1, 1,15,0.0, 1, 1,15
151,0.377198690348528,0.362786903001928,23,15,60,0.392122016690694, 7,24,60
224,23.0143555987692,19.9999999999998, 8, 6,15,35.136801589496,28,14,15
225,17.062201121951,4.19501351781735, 9,14,15,37.9974510830946, 3,22,15
258,21.9722099583913,19.9999999999999,11, 6,15,26.80120230582,28,20,45
259,17.3463298215117,5.74434513997198, 9,17,60,38.3961074481656, 3,21,60
260,158780972.18853,0.0, 1,10,60,306284.940506225, 4, 7,30
291,0.0,0.0, 1, 1,15,0.0, 1, 1,15
322,158780972.188533,0.0, 1,10,60,306284.940506239, 4, 7,30
323,11187629.4469253,0.0, 1,13, 5,48051.0321073204, 4, 8,60
324,0.0,0.0, 1, 1,15,0.0, 1, 1,15
325,11187629.4589336,0.0, 1,13, 5,48051.0321073208, 4, 8,60
408,93314129.0858936,0.0, 1, 1,15,166632.373367667, 1, 7,15
461,56080920.4779308,0.0, 1, 1,15,100144.500853448, 1, 7,15
4,90, 3
8,51378180.1270228,7056.14998997754, 1, 9,15,23520.4999665918, 1, 1,15
9,30877806.6326075,4240.6802736597, 1, 9,15,14135.600912199, 1, 1,15
71,34673963.1052835,0.0, 1, 1,15,42054.5337844553, 1,20,15
93,20838728.139146,0.0, 1, 1,15,25274.3822184912, 1,20,15
125,41886315.6493174,6007.79054063648, 1, 1,15,30038.9527031824, 1,19,15
137,25173284.6896173,3610.62603121303, 1, 1,15,18053.1301560651, 1,19,15
138,739827427.169777,0.0, 1, 1,15,1690421.90707455, 6,12,30
139,0.0,0.0, 1, 1,15,0.0, 1, 1,15
140,26.1537209361571,18.8049478850778, 9, 7,60,38.9739805400745,19,16,15
141,25.6417417502873,21.0562939837987, 9,11,45,31.5119737499491,19,23,60
142,25.6500009662049,19.9999999999999, 9, 6,60,38.8653316421604,19,15,60
143,25.901860951181,19.4024739425389, 9, 7,60,38.9170171629051,19,15,60
144,25.2135343622051,20.6094760794633, 9,11,30,31.2724575734872,19,21,60
145,25.4276380562462,20.8338233575736, 9,11,45,31.3525733915722,19,23,45
146,192758828.596699,6185.49607773707,29,11,47,93452.0067968229, 7,14,60
147,0.0,0.0, 1, 1,15,0.0, 1, 1,15
148,0.374489277778762,0.362841663333242,30,11,30,0.388802296220301, 7,14,60
149,114000181.257046,3829.52881794495,29,11,60,57442.7694858539, 6, 3,60
150,0.0,0.0, 1, 1,15,0.0, 1, 1,15
151,0.373983034316964,0.359808718982709,30,15,60,0.387175372936054, 8, 3,60
224,25.6500009662049,19.9999999999999, 9, 6,60,38.8653316421604,19,15,60
225,19.8163781291837,5.28408188286347, 7,15,15,36.9757311538619,27, 5,45
258,25.2135343622051,20.6094760794633, 9,11,30,31.2724575734872,19,21,60
259,19.6835135325248,7.12997254579697, 7,17,60,32.6543720060274,27, 6,60
260,19648615.4465224,0.0, 1, 1,15,155911.125014375, 9, 6,60
291,0.0,0.0, 1, 1,15,0.0, 1, 1,15
322,19648615.4465228,0.0, 1, 1,15,155911.125014384, 9, 6,60
323,0.0,0.0, 1, 1,15,0.0, 1, 1,15
324,0.0,0.0, 1, 1,15,0.0, 1, 1,15
325,0.0,0.0, 1, 1,15,0.0, 1, 1,15
408,103312071.487954,0.0, 1, 1,15,166632.373367667, 1, 7,15
461,62089590.5291376,0.0, 1, 1,15,100144.500853448, 1, 7,15
4,120, 4
8,50145705.9287734,7056.14998997754, 1,15,15,23520.4999665918, 1, 1,15
9,30137101.1448083,4240.6802736597, 1,15,15,14135.600912199, 1, 1,15
71,33223081.6897198,0.0, 1, 1,15,42054.5337844553, 1,19,15
93,19966761.9526081,0.0, 1, 1,15,25274.3822184912, 1,19,15
125,40372352.433077,6007.79054063648, 1, 1,15,30038.9527031824, 1,19,15
137,24263406.9297516,3610.62603121303, 1, 1,15,18053.1301560651, 1,19,15
138,457028337.510442,0.0, 1, 1,15,1368083.87349551, 2,12,30
139,0.0,0.0, 1, 1,15,0.0, 1, 1,15
140,25.6881442866989,18.5345012280373,26, 6,45,38.603546051274,10,15,45
141,25.6306197480974,20.2775432732361,26,11,60,33.3155052395736,10,22,60
142,25.3851243352222,19.9999999999999,26, 2,30,38.4214107284943,10,15,45
143,25.5366343109605,19.2672506140187,26, 6,45,38.5124783898841,10,15,45
144,25.4217364967512,20.,26,11,60,33.1800331870864,11,21,45
145,25.5261781224243,20.138771636618,26,11,60,33.2112771737258,10,21,60
146,129593490.470431,0.0,19,19,60,82918.2643017533,11,22,60
147,484.503401492893,0.0, 1, 1,15,484.503401492893,19,19,60
148,0.365801040186792,0.353673611885915,19,12, 5,0.375596505887649, 1,14,60
149,78533327.9055913,0.0,19,19,45,49532.2426102907,11,22,60
150,7782.39329410337,0.0, 1, 1,15,4816.99222220303,19,19,60
151,0.365874634598331,0.350920086665129,19,12,60,0.377112165050119, 1, 3,22
224,25.3851243352222,19.9999999999999,26, 2,30,38.4214107284943,10,15,45
225,31.0949938939982,11.7332041396389,11,16,60,60.6422029807722,20,23,45
258,25.4217364967512,20.,26,11,60,33.1800331870864,11,21,45
259,30.3547018830395,13.9522365787347,11,16,60,54.135229043167,25, 1,60
260,12828245.5655284,0.0, 1, 1,15,149454.685985669,26, 4,30
291,0.0,0.0, 1, 1,15,0.0, 1, 1,15
322,12828245.5655288,0.0, 1, 1,15,149454.68598568,26, 4,30
323,2976.15486756,0.0, 1, 1,15,1607.0531371272,26,11,30
324,0.0,0.0, 1, 1,15,0.0, 1, 1,15
325,2976.15486756005,0.0, 1, 1,15,1607.05313712724,26,11,30
408,99979424.0206003,0.0, 1, 1,15,166632.373367667, 1, 6,15
461,60086700.5120687,0.0, 1, 1,15,100144.500853448, 1, 6,15
4,151, 5
8,51378180.1270228,7056.14998997754, 1, 8,15,23520.4999665918, 1, 1,15
9,30877806.6326075,4240.6802736597, 1, 8,15,14135.600912199, 1, 1,15
71,34673963.1052835,0.0, 1, 1,15,42054.5337844553, 1,19,15
93,20838728.139146,0.0, 1, 1,15,25274.3822184912, 1,19,15
125,41886315.6493174,6007.79054063648, 1, 1,15,30038.9527031824, 1,18,15
137,25173284.6896173,3610.62603121303, 1, 1,15,18053.1301560651, 1,18,15
138,318393501.40425,0.0, 1, 1,15,784718.55125852, 5,12,30
139,0.0,0.0, 1, 1,15,0.0, 1, 1,15
140,26.964666282173,21.0539490500657,11, 7,15,34.178642282207,26,15,60
141,27.2183282283677,23.3759647943616, 4,12,15,32.548536678399,26,22,60
142,26.7580721852454,20.8226477276059,11, 6,60,34.0014517015685,26,15,60
143,26.8613692337092,20.9414325337041,11, 6,60,34.0900469918877,26,15,60
144,27.1462117734756,23.1723208094705, 4,11,45,32.7050201930567,26,21,60
145,27.1822700009217,23.2817042302119, 4,11,45,32.6154876822093,26,22,60
146,100413439.559107,0.0,11,18,60,67655.1705276019,17, 5,60
147,28364.0972417732,0.0, 1, 1,15,6181.5408517752,21,19,60
148,0.360532172121839,0.351517930397643,23,15,60,0.368630777100116, 1, 3,60
149,63122662.1719713,0.0, 8,18,60,44273.8913329681,17, 5,60
150,63467.889555803,0.0, 1, 1,15,7168.20567932088,11,18,60
151,0.361017656465851,0.347928479687135,23,15,60,0.371195652882617, 1, 3,60
224,26.7580721852454,20.8226477276059,11, 6,60,34.0014517015685,26,15,60
225,40.5698491454761,18.0396692719714, 8,16,60,67.3191066094952,28,14,60
258,27.1462117734756,23.1723208094705, 4,11,45,32.7050201930567,26,21,60
259,39.2981070747307,21.0107872460304, 8,17,15,62.4642450406379,28,15,30
260,0.0,0.0, 1, 1,15,0.0, 1, 1,15
291,0.0,0.0, 1, 1,15,0.0, 1, 1,15
322,0.0,0.0, 1, 1,15,0.0, 1, 1,15
323,0.0,0.0, 1, 1,15,0.0, 1, 1,15
324,0.0,0.0, 1, 1,15,0.0, 1, 1,15
325,0.0,0.0, 1, 1,15,0.0, 1, 1,15
408,103312071.487954,0.0, 1, 1,15,166632.373367667, 1, 6,15
461,62089590.5291376,0.0, 1, 1,15,100144.500853448, 1, 6,15
4,181, 6
8,49769377.9293079,7056.14998997754, 1, 8,15,23520.4999665918, 1, 1,15
9,29910931.5302131,4240.6802736597, 1, 8,15,14135.600912199, 1, 1,15
71,33517463.426211,0.0, 1, 1,15,42054.5337844553, 1,19,15
93,20143682.6281375,0.0, 1, 1,15,25274.3822184912, 1,19,15
125,40516539.4060524,6007.79054063648, 1, 1,15,30038.9527031824, 1,18,15
137,24350061.9545007,3610.62603121303, 1, 1,15,18053.1301560651, 1,18,15
138,280138105.482581,0.0, 1, 1,15,623038.874845394, 1,12,30
139,0.0,0.0, 1, 1,15,0.0, 1, 1,15
140,30.9642858871054,25.6928569390253, 1, 7,15,36.4947314800804,10,16,45
141,31.0898640721456,27.0833865181511, 1,11,45,34.9674663008534,11,22,60
142,30.7969370515888,25.3043347796533, 1, 5,60,36.4026858109696,10,19,30
143,30.8806114693471,25.5439549576669, 1, 6,15,36.4047367320969,10,16,45
144,31.0455893855438,26.9266188572641, 1, 9,45,35.1136699528314,11,20,60
145,31.0677267288446,27.0071355373409, 1,11,30,35.0316580185172,11,22,60
146,95517962.9545592,564.650931679558, 1,15,60,55322.6241696022, 1, 4,60
147,0.0,0.0, 1, 1,15,0.0, 1, 1,15
148,0.358920537557078,0.352528742662204,15,15,60,0.365854501350013,12, 3,60
149,59229793.3988135,0.0, 1,15,45,37800.8601108755,12, 7,15
150,4500.41820635728,0.0, 1, 1,15,3892.10556247009, 1,15,60
151,0.359225738927444,0.350603562045407,15,15,60,0.368908158048819,12, 6,60
224,30.7969370515888,25.3043347796533, 1, 5,60,36.4026858109696,10,19,30
225,45.8604450415232,17.9001818106554, 1,15,15,72.923490381799,14, 5,60
258,31.0455893855438,26.9266188572641, 1, 9,45,35.1136699528314,11,20,60
259,44.9270870294409,20.6751519954348, 1,15,15,67.5428653424003,14, 5,60
260,0.0,0.0, 1, 1,15,0.0, 1, 1,15
291,0.0,0.0, 1, 1,15,0.0, 1, 1,15
322,0.0,0.0, 1, 1,15,0.0, 1, 1,15
323,0.0,0.0, 1, 1,15,0.0, 1, 1,15
324,0.0,0.0, 1, 1,15,0.0, 1, 1,15
325,0.0,0.0, 1, 1,15,0.0, 1, 1,15
408,99979424.0206003,0.0, 1, 1,15,166632.373367667, 1, 6,15
461,60086700.5120687,0.0, 1, 1,15,100144.500853448, 1, 6,15
4,212, 7
8,51754508.1264882,7056.14998997754, 1,15,15,23520.4999665918, 1, 1,15
9,31103976.2472027,4240.6802736597, 1,15,15,14135.600912199, 1, 1,15
71,34379581.3687923,0.0, 1, 1,15,42054.5337844553, 1,19,15
93,20661807.4636166,0.0, 1, 1,15,25274.3822184912, 1,19,15
125,41742128.6763421,6007.79054063648, 1, 1,15,30038.9527031824, 1,19,15
137,25086629.6648682,3610.62603121303, 1, 1,15,18053.1301560651, 1,19,15
138,247596294.800691,0.0, 1, 1,15,624195.362626002,27,12,45
139,0.0,0.0, 1, 1,15,0.0, 1, 1,15
140,26.1853366835336,23.9605092937533,12, 6,45,32.4674844819825, 1,14,15
141,25.5026065110066,24.4912687593398,17,22,15,30.9504294043006, 1, 1,15
142,25.4714714579752,23.9494498636574,17,14,15,32.3616712375208, 1,13,60
143,25.8284040707544,24.0025899813142,12, 4,30,32.3283454644495, 1,13,60
144,25.2061953978392,23.965950806487,12,14,15,30.7255682854852, 1, 1,15
145,25.3544009544229,24.2479664229125,17,21,60,30.8379988448929, 1, 1,15
146,22349449.6925871,0.0, 1,14, 2,33357.193551298, 1, 1,15
147,23113032.9172433,0.0, 1, 1,15,52530.2924695805,30,14,30
148,0.349983582891761,0.341284846978736,20,15,60,0.357838011870951, 1, 1,60
149,12297797.6557372,0.0, 1,14, 2,23726.8567614274, 1, 3,60
150,13730011.0912334,0.0, 1, 1,15,29780.490958678,31,15,60
151,0.349673258809565,0.341272925402738,20,15,60,0.359789121295189, 1, 3,60
224,25.4714714579752,23.4800565040477,31,14, 3,32.3616712375208, 1,13,60
225,73.5492085242456,49.7166130687217,12,13,60,91.4680812410048, 2,14, 3
258,25.2061953978392,23.5397891139766,27,14, 3,30.7255682854852, 1, 1,15
259,74.785901724868,57.7455672787285, 6,22,22,91.5541758553337, 2,14, 1
260,0.0,0.0, 1, 1,15,0.0, 1, 1,15
291,311675274.188194,0.0, 1, 1,15,1018751.52302158, 1,14,45
322,3.320807774219826E-006,0.0, 1, 1,15,8.789129424258135E-008, 1,15,15
323,0.0,0.0, 1, 1,15,0.0, 1, 1,15
324,117016478.809977,0.0, 1, 1,15,523905.324519426, 1,14,45
325,6.877221701208989E-007,0.0, 1, 1,15,2.982574187626597E-008, 1,15,60
408,103312071.487954,0.0, 1, 1,15,166632.373367667, 1, 6,15
461,62089590.5291376,0.0, 1, 1,15,100144.500853448, 1, 6,15
4,243, 8
8,51378180.1270228,7056.14998997754, 1, 8,15,23520.4999665918, 1, 1,15
9,30877806.6326075,4240.6802736597, 1, 8,15,14135.600912199, 1, 1,15
71,34673963.1052835,0.0, 1, 1,15,42054.5337844553, 1,19,15
93,20838728.139146,0.0, 1, 1,15,25274.3822184912, 1,19,15
125,41886315.6493174,6007.79054063648, 1, 1,15,30038.9527031824, 1,18,15
137,25173284.6896173,3610.62603121303, 1, 1,15,18053.1301560651, 1,18,15
138,376070422.042433,0.0, 1, 1,15,1147281.02215874,30,12,15
139,0.0,0.0, 1, 1,15,0.0, 1, 1,15
140,26.7288399376716,23.1821165199067,26, 7,30,34.5403230202177,30,14,15
141,25.5972474911154,24.3872356278683,26, 8,15,27.3337695269846, 7,14,15
142,25.7081907453664,23.010615635312,26, 7,15,34.3709315622262,30,13,60
143,26.218515341519,23.1003725766249,26, 7,15,34.2580752978811,30,13,60
144,25.2252672826247,23.9214318789926,25,14,15,27.5791211446837, 7,13,60
145,25.4112573868701,24.3437830398042,25,21,60,27.4090840659952, 7,13,60
146,24715960.4119114,0.0, 1,14, 1,30557.0716631889,28, 6,60
147,25032482.6130535,0.0, 1, 1,15,52970.9187081783, 7,15,60
148,0.349706902261613,0.338870288716539, 7,15,60,0.357994449987483,20,13,52
149,12758327.3267028,0.0, 1, 1,15,19672.5980295684,26, 6,60
150,15030926.9342068,0.0, 1, 1,30,31115.0999863979, 7,15,60
151,0.34914493134004,0.338855708606804, 7,15,60,0.357747968210548,28, 6,60
224,25.7081907453664,23.010615635312,26, 7,15,34.4510994095259,30,13,60
225,71.4180133311547,36.1488828616417,30,13,60,93.1648520782141, 2, 5,60
258,25.2252672826247,23.5515128992534, 4,14, 3,27.5791211446837, 7,13,60
259,73.4257383426831,55.2044791917953,30,13,60,94.0850666569786, 2, 5,60
260,0.0,0.0, 1, 1,15,0.0, 1, 1,15
291,433377227.532726,0.0, 1, 1,15,1373255.36529493,30,14,45
322,5.807308277897247E-006,0.0, 1, 1,15,1.675971361692064E-007,31,14,45
323,0.0,0.0, 1, 1,15,0.0, 1, 1,15
324,133581311.59743,0.0, 1, 1,15,280395.579483753, 7,14, 1
325,8.771990842795027E-007,0.0, 1, 1,15,2.854676495189779E-008, 5,14,60
408,103312071.487954,0.0, 1, 1,15,166632.373367667, 1, 6,15
461,62089590.5291376,0.0, 1, 1,15,100144.500853448, 1, 6,15
4,273, 9
8,49957541.9290406,7056.14998997754, 1, 8,15,23520.4999665918, 1, 1,15
9,30024016.3375107,4240.6802736597, 1, 8,15,14135.600912199, 1, 1,15
71,33370272.5579654,0.0, 1, 1,15,42054.5337844553, 1,19,15
93,20055222.2903728,0.0, 1, 1,15,25274.3822184912, 1,19,15
125,40444445.9195647,6007.79054063648, 1, 1,15,30038.9527031824, 1,18,15
137,24306734.4421262,3610.62603121303, 1, 1,15,18053.1301560651, 1,18,15
138,500526551.309215,0.0, 1, 1,15,1471329.21233415,19,12,30
139,0.0,0.0, 1, 1,15,0.0, 1, 1,15
140,26.2017655293598,22.5758989163695,30, 7,30,36.1357584271252,19,14,15
141,25.2030548693595,23.9614988695892,30, 8,60,26.8539555944096, 8,14,15
142,25.0224901789892,22.3344652363541,30, 7,30,35.7840604607134,19,13,60
143,25.6121278541745,22.4551820763618,30, 7,30,35.7184432425575,19,13,60
144,24.8012678495049,23.8643863237893,30, 7,60,26.9368128609314, 8,13,60
145,25.0021613594322,23.9280923327145,30, 7,60,26.8287599666166, 8,13,60
146,48625521.1946724,0.0, 1,14, 2,48890.6797340992,15,24,60
147,2900129.67206005,0.0, 1, 1,15,24847.1091543805,20,18,60
148,0.353798601876474,0.342311104401638, 6,15,60,0.365529542869103,21,13,52
149,27816859.3619096,0.0, 1,12,50,29314.0035864088,15,24,60
150,1723138.08705613,0.0, 1, 1,15,16545.20829114,20,18,60
151,0.353547498960482,0.342317936199624, 6,15,60,0.362694027895007,30,24,60
224,25.0224901789892,22.3344652363541,30, 7,30,35.9686861885437,19,13,60
225,61.6897414392546,24.4218562947141,20,13,60,86.0836765077372, 9, 6,60
258,24.8012678495049,23.5522737606164,26,14, 3,26.9638130696828, 8,13,60
259,61.8933070735582,37.38280934129,16,13,60,84.4828705039801, 9, 6,60
260,0.0,0.0, 1, 1,15,0.0, 1, 1,15
291,421682421.576899,0.0, 1, 1,15,1648986.3157374,19,14,45
322,9.956652066632289E-006,0.0, 1, 1,15,1.090711521101184E-007, 9,14,45
323,0.0,0.0, 1, 1,15,0.0, 1, 1,15
324,96841777.3731697,0.0, 1, 1,15,224434.106742434, 8,14,45
325,2.024140352472971E-006,0.0, 1, 1,15,1.841726771090180E-008,19,14,45
408,99979424.0206003,0.0, 1, 1,15,166632.373367667, 1, 6,15
461,60086700.5120687,0.0, 1, 1,15,100144.500853448, 1, 6,15
4,304,10
8,51566344.1267555,7056.14998997754, 1,15,15,23520.4999665918, 1, 1,15
9,30990891.4399051,4240.6802736597, 1,15,15,14135.600912199, 1, 1,15
71,34526772.2370379,0.0, 1, 1,15,42054.5337844553, 1,19,15
93,20750267.8013813,0.0, 1, 1,15,25274.3822184912, 1,19,15
125,41814222.1628297,6007.79054063648, 1, 1,15,30038.9527031824, 1,19,15
137,25129957.1772427,3610.62603121303, 1, 1,15,18053.1301560651, 1,19,15
138,683455330.455527,0.0, 1, 1,15,1817776.08835157,31,12,15
139,0.0,0.0, 1, 1,15,0.0, 1, 1,15
140,32.243903332956,21.4697924940447,24, 7,30,43.3731986767748,15,15,60
141,31.620376643884,23.9862910718199, 1,11,15,36.8056661228372, 9,22,30
142,31.7730448817062,20.911861406442,24, 7,30,43.0706317876539,15,15,45
143,32.0084741073311,21.1908269502434,24, 7,30,43.2066714650546,15,15,45
144,31.2849321265708,23.8009891277203, 1, 7,60,36.5639270268954, 9,19,60
145,31.4526543852274,23.9286856229397, 1, 7,60,36.6586497268426, 9,21,60
146,174809209.105955,4487.56556978886, 1,11,17,99953.5357866332,15,24,60
147,0.0,0.0, 1, 1,15,0.0, 1, 1,15
148,0.369710338699418,0.358224282278617, 1,10,60,0.382670337113672,31,13,45
149,103579580.830729,2686.80942684361, 1,11,30,62653.9120037424,15,24,60
150,0.0,0.0, 1, 1,15,0.0, 1, 1,15
151,0.369149782315662,0.35658583423923, 1,12,60,0.381106307974751,19, 3,22
224,31.7730448817062,20.911861406442,24, 7,30,43.0706317876539,15,15,45
225,29.9911729792024,8.34776173424499,19,15,30,58.0127442207878,28,24,30
258,31.2849321265708,23.8009891277203, 1, 7,60,36.5639270268954, 9,19,60
259,29.9727301869101,12.3613007840939,19,16,37,50.4649654869648,28,24,30
260,0.0,0.0, 1, 1,15,0.0, 1, 1,15
291,0.0,0.0, 1, 1,15,0.0, 1, 1,15
322,0.0,0.0, 1, 1,15,0.0, 1, 1,15
323,0.0,0.0, 1, 1,15,0.0, 1, 1,15
324,0.0,0.0, 1, 1,15,0.0, 1, 1,15
325,0.0,0.0, 1, 1,15,0.0, 1, 1,15
408,103312071.487954,0.0, 1, 1,15,166632.373367667, 1, 6,15
461,62089590.5291376,0.0, 1, 1,15,100144.500853448, 1, 6,15
4,334,11
8,49769377.9293079,7056.14998997754, 1, 9,15,23520.4999665918, 1, 1,15
9,29910931.5302131,4240.6802736597, 1, 9,15,14135.600912199, 1, 1,15
71,33517463.426211,0.0, 1, 1,15,42054.5337844553, 1,20,15
93,20143682.6281375,0.0, 1, 1,15,25274.3822184912, 1,20,15
125,40516539.4060523,6007.79054063648, 1, 1,15,30038.9527031824, 1,19,15
137,24350061.9545007,3610.62603121303, 1, 1,15,18053.1301560651, 1,19,15
138,592944241.06804,0.0, 1, 1,15,1870253.7893422,27,12,30
139,0.0,0.0, 1, 1,15,0.0, 1, 1,15
140,25.079260280789,18.0184110341467,11, 7,60,39.0286017300413, 7,13,45
141,24.9472785268328,20.2116419137848,11,10,30,31.6203246696839, 7,23,30
142,24.8290652526622,19.9999999999999,11, 5,30,39.2477376062786, 7,13,60
143,24.9541627667256,19.0092055170734,11, 7,60,39.1280802547308, 7,13,45
144,24.605545056152,20.,11, 9,60,31.5361027666987, 7,20,60
145,24.7764117914924,20.1094946619022,11, 9,60,31.564589540945, 7,22,60
146,162197994.696757,6031.40339127245, 6,10,32,81552.9684204638,23,13,15
147,0.0,0.0, 1, 1,15,0.0, 1, 1,15
148,0.371019108262701,0.361115978414561,19, 9,60,0.384761606455913,23,12,60
149,96935026.7787272,3637.24504980175,24,11,47,50616.0763344166,23, 7,60
150,0.0,0.0, 1, 1,15,0.0, 1, 1,15
151,0.370764894929747,0.359012755478369, 5,15,60,0.382239892200825,23, 7,60
224,24.8290652526622,19.9999999999999,11, 5,30,39.3693362299593, 7,13,45
225,29.963853651019,9.62309610213397,27,13,60,58.0964374092581,19, 8,60
258,24.605545056152,20.,11, 9,60,31.5361027666987, 7,20,60
259,29.6792174839975,14.2645066269965,23,14,60,51.136559493,19,11,15
260,55079172.9214223,0.0, 1, 1,15,234746.309125908,30,24,60
291,0.0,0.0, 1, 1,15,0.0, 1, 1,15
322,55079172.9214236,0.0, 1, 1,15,234746.309125917,30,24,60
323,34828.0523397737,0.0, 1, 1,15,8926.2863505065,11, 8,60
324,0.0,0.0, 1, 1,15,0.0, 1, 1,15
325,34828.0523397747,0.0, 1, 1,15,8926.28635050696,11, 8,60
408,99979424.0206003,0.0, 1, 1,15,166632.373367667, 1, 7,15
461,60086700.5120687,0.0, 1, 1,15,100144.500853448, 1, 7,15
4,365,12
8,51754508.1264882,7056.14998997754, 1, 9,15,23520.4999665918, 1, 1,15
9,31103976.2472027,4240.6802736597, 1, 9,15,14135.600912199, 1, 1,15
71,34379581.3687923,0.0, 1, 1,15,42054.5337844553, 1,20,15
93,20661807.4636166,0.0, 1, 1,15,25274.3822184912, 1,20,15
125,41742128.6763421,6007.79054063648, 1, 1,15,30038.9527031824, 1,19,15
137,25086629.6648682,3610.62603121303, 1, 1,15,18053.1301560651, 1,19,15
138,720316132.98397,0.0, 1, 1,15,2035785.94492217,31,12,30
139,0.0,0.0, 1, 1,15,0.0, 1, 1,15
140,22.7107183796308,17.3737390745149,31, 6,60,33.5295030598283, 9,14,15
141,22.1754302809082,19.5702413517617,31, 8,60,24.8307082972028,28,23,15
142,22.7287861752078,19.9999999999998,31, 1,45,33.4057659525601,27,14,15
143,22.7197522774193,18.6868695372574,31, 6,60,33.4416593075833, 9,14,15
144,21.7098809853204,19.9999999999999,31, 4,15,24.7383553972398,28,20,60
145,21.9426556331143,19.7851206758809,31, 8,60,24.7495322191418,28,22,60
146,223198224.579255,11062.778598544,13,10,32,110862.402305147,31, 9,60
147,0.0,0.0, 1, 1,15,0.0, 1, 1,15
148,0.37956634406956,0.365891525597436,29,15,60,0.404691983063057,31,14,15
149,128399722.244755,5639.35106988644, 7,11,48,66423.0003343453,31, 9,60
150,0.0,0.0, 1, 1,15,0.0, 1, 1,15
151,0.378273109047116,0.364523588511959,29,15,60,0.395023217042652,31,21,60
224,22.7287861752078,19.9999999999998,31, 1,45,33.5835243836597,27,14,15
225,18.728395073814,4.75611193637446,20,13,60,40.9962429907593,25, 4,15
258,21.7098809853204,19.9999999999999,31, 4,15,24.7383553972398,28,20,60
259,19.0576762406933,6.96311849871656,16,19,60,39.3222493035683,25, 4,45
260,173281978.279297,0.0, 1,10,22,352707.160806756,31, 6,60
291,0.0,0.0, 1, 1,15,0.0, 1, 1,15
322,173281978.279301,0.0, 1,10,22,352707.160806757,31, 6,60
323,11100792.307194,0.0, 1,12,33,61833.8523493524,31, 6,60
324,0.0,0.0, 1, 1,15,0.0, 1, 1,15
325,11100792.3071944,0.0, 1,12,33,61833.8523493542,31, 6,60
408,103312071.487954,0.0, 1, 1,15,166632.373367667, 1, 7,15
461,62089590.5291376,0.0, 1, 1,15,100144.500853448, 1, 7,15
End of Data
 Number of Records Written=         384
