Program Version,EnergyPlus, Version 8.4.0-09f5359d8a, YMD=2023.08.02 14:39
1,5,Environment Title[],Latitude[deg],Longitude[deg],Time Zone[],Elevation[m]
2,6,Day of Simulation[],Month[],Day of Month[],DST Indicator[1=yes 0=no],Hour[],StartMinute[],EndMinute[],DayType
3,3,Cumulative Day of Simulation[],Month[],Day of Month[],DST Indicator[1=yes 0=no],DayType  ! When Daily Report Variables Requested
4,2,Cumulative Days of Simulation[],Month[]  ! When Monthly Report Variables Requested
5,1,Cumulative Days of Simulation[] ! When Run Period Report Variables Requested
8,9,PERIM,Zone People Total Heating Energy [J] !Monthly  [Value,Min,Day,Hour,Minute,Max,Day,Hour,Minute]
9,9,CORE,Zone People Total Heating Energy [J] !Monthly  [Value,Min,Day,Hour,Minute,Max,Day,Hour,Minute]
71,9,PERIM,Zone Lights Electric Energy [J] !Monthly  [Value,Min,Day,Hour,Minute,Max,Day,Hour,Minute]
93,9,CORE,Zone Lights Electric Energy [J] !Monthly  [Value,Min,Day,Hour,Minute,Max,Day,Hour,Minute]
125,9,PERIM,Zone Electric Equipment Electric Energy [J] !Monthly  [Value,Min,Day,Hour,Minute,Max,Day,Hour,Minute]
137,9,CORE,Zone Electric Equipment Electric Energy [J] !Monthly  [Value,Min,Day,Hour,Minute,Max,Day,Hour,Minute]
138,9,PERIM,Zone Windows Total Transmitted Solar Radiation Energy [J] !Monthly  [Value,Min,Day,Hour,Minute,Max,Day,Hour,Minute]
139,9,CORE,Zone Windows Total Transmitted Solar Radiation Energy [J] !Monthly  [Value,Min,Day,Hour,Minute,Max,Day,Hour,Minute]
140,9,PERIM,Zone Mean Radiant Temperature [C] !Monthly [Value,Min,Day,Hour,Minute,Max,Day,Hour,Minute]
141,9,CORE,Zone Mean Radiant Temperature [C] !Monthly [Value,Min,Day,Hour,Minute,Max,Day,Hour,Minute]
142,9,PERIM,Zone Mean Air Temperature [C] !Monthly [Value,Min,Day,Hour,Minute,Max,Day,Hour,Minute]
143,9,PERIM,Zone Operative Temperature [C] !Monthly [Value,Min,Day,Hour,Minute,Max,Day,Hour,Minute]
144,9,CORE,Zone Mean Air Temperature [C] !Monthly [Value,Min,Day,Hour,Minute,Max,Day,Hour,Minute]
145,9,CORE,Zone Operative Temperature [C] !Monthly [Value,Min,Day,Hour,Minute,Max,Day,Hour,Minute]
146,9,PERIM,Zone Infiltration Total Heat Loss Energy [J] !Monthly  [Value,Min,Day,Hour,Minute,Max,Day,Hour,Minute]
147,9,PERIM,Zone Infiltration Total Heat Gain Energy [J] !Monthly  [Value,Min,Day,Hour,Minute,Max,Day,Hour,Minute]
148,9,PERIM,Zone Infiltration Air Change Rate [ach] !Monthly [Value,Min,Day,Hour,Minute,Max,Day,Hour,Minute]
149,9,CORE,Zone Infiltration Total Heat Loss Energy [J] !Monthly  [Value,Min,Day,Hour,Minute,Max,Day,Hour,Minute]
150,9,CORE,Zone Infiltration Total Heat Gain Energy [J] !Monthly  [Value,Min,Day,Hour,Minute,Max,Day,Hour,Minute]
151,9,CORE,Zone Infiltration Air Change Rate [ach] !Monthly [Value,Min,Day,Hour,Minute,Max,Day,Hour,Minute]
224,9,PERIM,Zone Air Temperature [C] !Monthly [Value,Min,Day,Hour,Minute,Max,Day,Hour,Minute]
225,9,PERIM,Zone Air Relative Humidity [%] !Monthly [Value,Min,Day,Hour,Minute,Max,Day,Hour,Minute]
258,9,CORE,Zone Air Temperature [C] !Monthly [Value,Min,Day,Hour,Minute,Max,Day,Hour,Minute]
259,9,CORE,Zone Air Relative Humidity [%] !Monthly [Value,Min,Day,Hour,Minute,Max,Day,Hour,Minute]
260,9,PERIM IDEAL LOADS AIR,Zone Ideal Loads Supply Air Total Heating Energy [J] !Monthly  [Value,Min,Day,Hour,Minute,Max,Day,Hour,Minute]
291,9,PERIM IDEAL LOADS AIR,Zone Ideal Loads Supply Air Total Cooling Energy [J] !Monthly  [Value,Min,Day,Hour,Minute,Max,Day,Hour,Minute]
322,9,PERIM IDEAL LOADS AIR,Zone Ideal Loads Zone Total Heating Energy [J] !Monthly  [Value,Min,Day,Hour,Minute,Max,Day,Hour,Minute]
323,9,CORE IDEAL LOADS AIR,Zone Ideal Loads Supply Air Total Heating Energy [J] !Monthly  [Value,Min,Day,Hour,Minute,Max,Day,Hour,Minute]
324,9,CORE IDEAL LOADS AIR,Zone Ideal Loads Supply Air Total Cooling Energy [J] !Monthly  [Value,Min,Day,Hour,Minute,Max,Day,Hour,Minute]
325,9,CORE IDEAL LOADS AIR,Zone Ideal Loads Zone Total Heating Energy [J] !Monthly  [Value,Min,Day,Hour,Minute,Max,Day,Hour,Minute]
408,9,DHW PERIM,Water Use Equipment Heating Energy [J] !Monthly  [Value,Min,Day,Hour,Minute,Max,Day,Hour,Minute]
461,9,DHW CORE,Water Use Equipment Heating Energy [J] !Monthly  [Value,Min,Day,Hour,Minute,Max,Day,Hour,Minute]
End of Data Dictionary
1,ARCHSIM,  37.57, 126.97,   9.00,  87.10
4,31, 1
8,51566344.1132385,7056.14998812789, 1,16,15,23520.4999604263, 1, 1,15
9,30990891.4382149,4240.68027342838, 1,16,15,14135.6009114279, 1, 1,15
71,34526772.2279871,0.0, 1, 1,15,42054.5337734314, 1,20,15
93,20750267.8002494,0.0, 1, 1,15,25274.3822171125, 1,20,15
125,41814222.1518691,6007.79053906163, 1, 1,15,30038.9526953082, 1,20,15
137,25129957.1758716,3610.62603101607, 1, 1,15,18053.1301550804, 1,20,15
138,121908979.291284,0.0, 1, 1,15,191109.23505653,31,13,30
139,0.0,0.0, 1, 1,15,0.0, 1, 1,15
140,18.1448559038298,17.0925864712461,14, 8,45,19.6165053666279, 8,14,60
141,19.6703361645472,19.408443535935,15, 8,60,19.9876290362015, 8,23,60
142,20.,19.9999999999998,23, 8,45,20.0000000000002,21, 5,45
143,19.0724279519149,18.546293235623,14, 8,45,19.8082526833139, 8,14,60
144,20.0006818445172,19.9999999999999,15, 5,45,20.1174561914263, 8,20,45
145,19.8355090045322,19.7042217679675,15, 8,60,20.028072035518, 8,21,60
146,213380510.427202,25894.9479653566, 6,15,60,109569.060231994,23, 6,60
147,0.0,0.0, 1, 1,15,0.0, 1, 1,15
148,0.378745493070868,0.36160280530454, 6,15,60,0.394153674847728,23, 6,60
149,128183203.12183,15515.2092461737, 6,15,60,65924.3831487097,23, 6,60
150,0.0,0.0, 1, 1,15,0.0, 1, 1,15
151,0.378746764504009,0.361603769858835, 6,15,60,0.394152140683327,23, 6,60
224,20.,19.9999999999998,23, 8,45,20.0000000000002,21, 5,45
225,17.6733138563004,6.88599628019161,14,19,60,34.9088941743864, 2,22,45
258,20.0006818445172,19.9999999999999,15, 5,45,20.1174561914263, 8,20,45
259,17.6409823627586,6.26285160590536,14,19,60,35.2933790183385, 2,22,30
260,652622192.220453,41300.6363976464, 8,14,45,390183.530251181,23, 6,60
291,0.0,0.0, 1, 1,15,0.0, 1, 1,15
322,652622192.220467,41300.6363976483, 8,14,45,390183.530251184,23, 6,60
323,111297423.200817,0.0, 2,20,15,75832.4058247918,23, 6,60
324,0.0,0.0, 1, 1,15,0.0, 1, 1,15
325,111297423.200821,0.0, 2,20,15,75832.4058247918,23, 6,60
408,103312071.460872,0.0, 1, 1,15,166632.373323987, 1, 7,15
461,62089590.5257512,0.0, 1, 1,15,100144.500847986, 1, 7,15
4,59, 2
8,46551773.5216756,7056.14998812789, 1, 9,15,23520.4999604263, 1, 1,15
9,27977181.3238984,4240.68027342838, 1, 9,15,14135.6009114279, 1, 1,15
71,31204464.059886,0.0, 1, 1,15,42054.5337734314, 1,20,15
93,18753591.6050975,0.0, 1, 1,15,25274.3822171125, 1,20,15
125,37776986.9096196,6007.79053906163, 1, 1,15,30038.9526953082, 1,19,15
137,22703616.4830289,3610.62603101607, 1, 1,15,18053.1301550804, 1,19,15
138,142681850.732414,0.0, 1, 1,15,216991.235638223,27,13,15
139,0.0,0.0, 1, 1,15,0.0, 1, 1,15
140,18.5188065285477,17.3100151177826, 8, 6,60,20.4161699801379,27,15,60
141,19.7820661861418,19.5020568626043,11, 8,60,20.3270757333344,27,23,30
142,20.0008303254926,19.9999999999998,11, 8,45,20.1345637094198,23,16,15
143,19.2598184270202,18.6550075588913, 8, 6,60,20.2737145564447,27,15,60
144,20.0166333955123,19.9999999999999,10, 3,15,20.5669506303778,23,20,45
145,19.899349790827,19.7510284313022,11, 8,60,20.4046668483267,23,20,60
146,168339441.005372,14508.4504171861,23,19,30,100674.231840727, 8, 6,60
147,0.0,0.0, 1, 1,15,0.0, 1, 1,15
148,0.37491505980502,0.358167414564671,24,15,60,0.390402713097653, 8, 6,60
149,101317507.984276,9335.91820959976,23,18,60,60464.622155547, 8, 6,60
150,0.0,0.0, 1, 1,15,0.0, 1, 1,15
151,0.374934287510175,0.35812572812673,23,15,60,0.390403532204503, 8, 6,60
224,20.0008303254926,19.9999999999998,11, 8,45,20.1345637094198,23,16,15
225,18.4516062503336,6.49454175948693, 9,17,60,37.9388108868012, 3,22,15
258,20.0166333955123,19.9999999999999,10, 3,15,20.5669506303778,23,20,45
259,18.4716467782986,6.12770651238164, 9,17,60,38.3642111635583, 3,21,60
260,462730532.662415,0.0,23,15,15,354098.163593989, 8, 6,60
291,0.0,0.0, 1, 1,15,0.0, 1, 1,15
322,462730532.662425,0.0,23,15,15,354098.163593999, 8, 6,60
323,75762388.9507795,0.0, 5,20,15,66555.2119716458, 8, 6,60
324,0.0,0.0, 1, 1,15,0.0, 1, 1,15
325,75762388.950782,0.0, 5,20,15,66555.2119716464, 8, 6,60
408,93314129.0614332,0.0, 1, 1,15,166632.373323987, 1, 7,15
461,56080920.4748721,0.0, 1, 1,15,100144.500847986, 1, 7,15
4,90, 3
8,51378180.1135551,7056.14998812789, 1, 9,15,23520.4999604263, 1, 1,15
9,30877806.6309235,4240.68027342838, 1, 9,15,14135.6009114279, 1, 1,15
71,34673963.0961941,0.0, 1, 1,15,42054.5337734314, 1,20,15
93,20838728.1380093,0.0, 1, 1,15,25274.3822171125, 1,20,15
125,41886315.6383378,6007.79053906163, 1, 1,15,30038.9526953082, 1,19,15
137,25173284.6882438,3610.62603101607, 1, 1,15,18053.1301550804, 1,19,15
138,208629866.236855,0.0, 1, 1,15,259464.327382208,23,13,30
139,0.0,0.0, 1, 1,15,0.0, 1, 1,15
140,19.3041367582857,17.6393771259471, 6, 7,30,21.5342981522045,19,16,45
141,20.1108259290183,19.5770090543769, 8, 7,60,21.1436379839393,30,22,60
142,20.0860750828555,19.9999999999998, 6, 1,45,21.6996144482846,30,18,45
143,19.6951059205706,18.8196885629736, 6, 7,30,21.5528616387944,30,18,30
144,20.1431296358682,19.9999999999999, 7,10,15,21.3686450660122,30,21,60
145,20.1269777824433,19.7885045271885, 8, 7,60,21.2477739599336,30,22,60
146,137049880.30775,2870.43922995871,19,19,60,82287.9633079295, 8, 6,60
147,0.0,0.0, 1, 1,15,0.0, 1, 1,15
148,0.367794880395445,0.353858219205775,19,15,60,0.383413474134801, 8, 6,60
149,82805351.6213485,1538.11661385016,19,19,60,49742.2851262554, 8, 6,60
150,0.0,0.0, 1, 1,15,0.0, 1, 1,15
151,0.36786626894598,0.352759389969839,19,15,60,0.383407490534273, 8, 6,60
224,20.0860750828555,19.9999999999998, 6, 1,45,21.6996144482846,30,18,45
225,23.4858934702676,8.77269473159734, 7,17,60,41.7611876539496,31,19,30
258,20.1431296358682,19.9999999999999, 7,10,15,21.3686450660122,30,21,60
259,23.4546368263473,8.48011890772964, 7,17,60,40.1872720010771,31,17,60
260,271678963.967652,0.0, 4,15,30,290318.696351448, 8, 6,60
291,0.0,0.0, 1, 1,15,0.0, 1, 1,15
322,271678963.967659,0.0, 4,15,30,290318.69635145, 8, 6,60
323,33185101.8895082,0.0, 1,20,15,52364.4680215973, 8, 6,60
324,0.0,0.0, 1, 1,15,0.0, 1, 1,15
325,33185101.8895093,0.0, 1,20,15,52364.4680215974, 8, 6,60
408,103312071.460872,0.0, 1, 1,15,166632.373323987, 1, 7,15
461,62089590.5257512,0.0, 1, 1,15,100144.500847986, 1, 7,15
4,120, 4
8,50145705.9156288,7056.14998812789, 1,15,15,23520.4999604263, 1, 1,15
9,30137101.1431646,4240.68027342838, 1,15,15,14135.6009114279, 1, 1,15
71,33223081.6810107,0.0, 1, 1,15,42054.5337734314, 1,19,15
93,19966761.9515189,0.0, 1, 1,15,25274.3822171125, 1,19,15
125,40372352.4224943,6007.79053906163, 1, 1,15,30038.9526953082, 1,19,15
137,24263406.9284278,3610.62603101607, 1, 1,15,18053.1301550804, 1,19,15
138,220281666.957632,0.0, 1, 1,15,274377.251631371,19,12,30
139,0.0,0.0, 1, 1,15,0.0, 1, 1,15
140,21.2836739356142,18.0150615156608, 1, 7,15,25.9678237888782,11,18,15
141,21.7996051234356,19.8057136532968, 2, 8,30,25.4635920420878,12,22,60
142,21.4480188881892,19.9999999999999,26, 1,15,26.4940134869239,11,18,45
143,21.3658464119016,19.0075307578304, 1, 7,15,26.2263551035956,11,18,45
144,21.7813303357007,20., 1, 4,60,25.7040441571782,12,21,60
145,21.7904677295682,19.9028568266484, 2, 8,30,25.5677363225912,12,22,60
146,91939911.5893073,0.0, 7,19,60,66698.8225849885, 1, 1,60
147,102362.988808295,0.0, 1, 1,15,14967.1753814554,19,19,60
148,0.361232046666615,0.348767837347513,19,12,60,0.372499408736439, 1, 4,60
149,57306915.7138735,0.0, 7,19,45,39149.0780546007, 1, 1,60
150,129569.94383959,0.0, 1, 1,15,12246.9949651385,19,19,60
151,0.361646238209344,0.347314945032899,19,12,60,0.372519796212341, 1, 4,60
224,21.4480188881892,19.9999999999999,26, 1,15,26.4940134869239,11,18,45
225,35.9130871651906,17.3871536303001,18,17,30,66.3236358378031,20,23,45
258,21.7813303357007,20., 1, 4,60,25.7040441571782,12,21,60
259,35.0870230202125,18.3610324814931,18,18,15,59.1284215722773,25, 1,45
260,72376257.5977137,0.0, 2,13,30,225453.848064891, 1, 7,15
291,0.0,0.0, 1, 1,15,0.0, 1, 1,15
322,72376257.5977158,0.0, 2,13,30,225453.848064893, 1, 7,15
323,4193361.78623021,0.0, 1,19,15,26839.4482464963, 1, 7,60
324,0.0,0.0, 1, 1,15,0.0, 1, 1,15
325,4193361.78623036,0.0, 1,19,15,26839.4482464967, 1, 7,60
408,99979423.9943927,0.0, 1, 1,15,166632.373323987, 1, 6,15
461,60086700.5087915,0.0, 1, 1,15,100144.500847986, 1, 6,15
4,151, 5
8,51378180.1135551,7056.14998812789, 1, 8,15,23520.4999604263, 1, 1,15
9,30877806.6309235,4240.68027342838, 1, 8,15,14135.6009114279, 1, 1,15
71,34673963.0961941,0.0, 1, 1,15,42054.5337734314, 1,19,15
93,20838728.1380093,0.0, 1, 1,15,25274.3822171125, 1,19,15
125,41886315.6383378,6007.79053906163, 1, 1,15,30038.9526953082, 1,18,15
137,25173284.6882438,3610.62603101607, 1, 1,15,18053.1301550804, 1,18,15
138,242793106.830273,0.0, 1, 1,15,267820.397528139,14,13,15
139,0.0,0.0, 1, 1,15,0.0, 1, 1,15
140,24.9864048083427,19.0277703079867, 3, 7,15,32.1056683985716,26,16,60
141,25.410860609552,21.0559912704662, 4,11,30,31.093461734402,26,22,60
142,24.877617455975,18.7594184457404, 3, 6,60,32.151681660227,26,18,30
143,24.9320111321588,18.8993438278459, 3, 6,60,32.0584722140463,26,18,30
144,25.4171223573743,20.8995155208896, 4, 9,45,31.3195566101374,26,21,60
145,25.4139914834632,20.9842061626771, 4,11,30,31.2025756756349,26,22,60
146,82437546.2866775,0.0, 7,20,60,60693.5666611982,17, 5,60
147,124904.478889584,0.0, 1, 1,15,12152.1755038611,11,18,60
148,0.358468344645013,0.349105761436092,23,15,60,0.36520714945186,18,21,52
149,53134220.0167321,0.0, 7,15,60,39751.9882256659,17, 5,60
150,163674.504223005,0.0, 1, 1,15,9960.55948329827,11,18,60
151,0.359129950207706,0.346634383028571,23,15,60,0.367464907705451, 6, 6,60
224,24.877617455975,18.7594184457404, 3, 6,60,32.151681660227,26,18,30
225,43.8892609056181,21.5387532454327, 8,17,15,69.0510298669467,28,14,60
258,25.4171223573743,20.8995155208896, 4, 9,45,31.3195566101374,26,21,60
259,42.3614480246542,23.5727833757767,17,16,15,64.6721910311669,28,15,30
260,0.0,0.0, 1, 1,15,0.0, 1, 1,15
291,0.0,0.0, 1, 1,15,0.0, 1, 1,15
322,0.0,0.0, 1, 1,15,0.0, 1, 1,15
323,0.0,0.0, 1, 1,15,0.0, 1, 1,15
324,0.0,0.0, 1, 1,15,0.0, 1, 1,15
325,0.0,0.0, 1, 1,15,0.0, 1, 1,15
408,103312071.460872,0.0, 1, 1,15,166632.373323987, 1, 6,15
461,62089590.5257512,0.0, 1, 1,15,100144.500847986, 1, 6,15
4,181, 6
8,49769377.9162619,7056.14998812789, 1, 8,15,23520.4999604263, 1, 1,15
9,29910931.5285818,4240.68027342838, 1, 8,15,14135.6009114279, 1, 1,15
71,33517463.4174248,0.0, 1, 1,15,42054.5337734314, 1,19,15
93,20143682.6270387,0.0, 1, 1,15,25274.3822171125, 1,19,15
125,40516539.3954318,6007.79053906163, 1, 1,15,30038.9526953082, 1,18,15
137,24350061.9531722,3610.62603101607, 1, 1,15,18053.1301550804, 1,18,15
138,247509521.334813,0.0, 1, 1,15,275136.256387943,11,13,30
139,0.0,0.0, 1, 1,15,0.0, 1, 1,15
140,29.9153932413586,24.7864728564382, 1, 6,15,34.8805763905135,11,17,30
141,30.1621185108705,26.2420158138302, 1,10,30,33.8372228069796,11,22,60
142,29.7959573612826,24.39591729387, 1, 5,60,35.056373629784,10,19,30
143,29.8556753013206,24.6199145851549, 1, 5,60,34.8748290553028,10,19,30
144,30.1566270654068,26.0791799426496, 1, 9,45,34.0287129272018,11,22,60
145,30.1593727881387,26.1685257475129, 1, 9,45,33.9329678670907,11,22,60
146,86529978.8156561,0.0, 1,15,45,52192.0638908646, 1, 4,60
147,6177.2525209268,0.0, 1, 1,15,5741.85431347986, 1,15,60
148,0.357928303232038,0.351394608877365,15,15,60,0.364949191222662,12, 3,60
149,54415318.7747816,0.0, 1,15,45,35684.9232548146,12, 7,15
150,9880.13986328491,0.0, 1, 1,15,5716.54381114674, 1,15,60
151,0.358362778890225,0.349612885241917,25,15,60,0.367930789135656,12, 6,60
224,29.7959573612826,24.39591729387, 1, 5,60,35.056373629784,10,19,30
225,47.8136016292865,19.9965866796125, 1,15,15,74.4133305950091,14, 5,60
258,30.1566270654068,26.0791799426496, 1, 9,45,34.0287129272018,11,22,60
259,46.6810209158257,21.4319019962518, 1,15,15,69.1507709032072,14, 5,60
260,0.0,0.0, 1, 1,15,0.0, 1, 1,15
291,0.0,0.0, 1, 1,15,0.0, 1, 1,15
322,0.0,0.0, 1, 1,15,0.0, 1, 1,15
323,0.0,0.0, 1, 1,15,0.0, 1, 1,15
324,0.0,0.0, 1, 1,15,0.0, 1, 1,15
325,0.0,0.0, 1, 1,15,0.0, 1, 1,15
408,99979423.9943927,0.0, 1, 1,15,166632.373323987, 1, 6,15
461,60086700.5087915,0.0, 1, 1,15,100144.500847986, 1, 6,15
4,212, 7
8,51754508.1129219,7056.14998812789, 1,15,15,23520.4999604263, 1, 1,15
9,31103976.2455063,4240.68027342838, 1,15,15,14135.6009114279, 1, 1,15
71,34379581.3597801,0.0, 1, 1,15,42054.5337734314, 1,19,15
93,20661807.4624895,0.0, 1, 1,15,25274.3822171125, 1,19,15
125,41742128.6654003,6007.79053906163, 1, 1,15,30038.9526953082, 1,19,15
137,25086629.6634994,3610.62603101607, 1, 1,15,18053.1301550804, 1,19,15
138,213299313.790838,0.0, 1, 1,15,238468.325658455, 8,12,30
139,0.0,0.0, 1, 1,15,0.0, 1, 1,15
140,26.0009908535425,23.9792557382681,12, 6,30,31.187169286353, 1,14,15
141,25.4343982069426,24.4836241930688,17,22,15,30.3085812725433, 1, 1,15
142,25.3855780064074,23.9417074598492,12, 4,30,31.1829901964186, 1,13,60
143,25.6932844299749,23.963579872277,12, 4,30,31.1279156576683, 1,13,60
144,25.163087826572,23.9644079109417,17,14,15,30.1166697813937, 1, 1,15
145,25.2987430167573,24.2440692256141,17,21,60,30.2126255269685, 1, 1,15
146,22310687.3969893,0.0, 1,14, 2,31847.7464402014, 1, 1,15
147,22396670.0247462,0.0, 1, 1,15,50448.1126909845,30,14,45
148,0.350051687601908,0.341447194028471,20,15,60,0.357404777473616, 1, 1,60
149,12473104.2503695,0.0, 1,14, 1,22620.9358621439, 1, 3,60
150,13342244.1069293,0.0, 1, 1,15,29422.5087708617,31,15,60
151,0.34979137702009,0.341440795521968,20,15,60,0.359279476082051, 1, 3,60
224,25.3855780064074,23.3914923214544, 7,14, 4,31.1829901964186, 1,13,60
225,73.9513226324821,52.315671654491,12,13,60,91.6161173012957, 3, 5,60
258,25.163087826572,23.6059846757942, 1,14, 3,30.1166697813937, 1, 1,15
259,74.9997766663146,57.873807287788, 6,22,30,91.7857307622197, 2,14, 2
260,0.0,0.0, 1, 1,15,0.0, 1, 1,15
291,271126423.282502,0.0, 1, 1,15,838390.933599183, 1,14,45
322,1.827994822178880E-006,0.0, 1, 1,15,6.174900590849575E-008, 7,15,15
323,0.0,0.0, 1, 1,15,0.0, 1, 1,15
324,110521439.69794,0.0, 1, 1,15,471931.274411262, 1,14,45
325,4.758753391342907E-007,0.0, 1, 1,15,4.614548743120395E-008, 1,14,45
408,103312071.460872,0.0, 1, 1,15,166632.373323987, 1, 6,15
461,62089590.5257512,0.0, 1, 1,15,100144.500847986, 1, 6,15
4,243, 8
8,51378180.1135551,7056.14998812789, 1, 8,15,23520.4999604263, 1, 1,15
9,30877806.6309235,4240.68027342838, 1, 8,15,14135.6009114279, 1, 1,15
71,34673963.0961941,0.0, 1, 1,15,42054.5337734314, 1,19,15
93,20838728.1380093,0.0, 1, 1,15,25274.3822171125, 1,19,15
125,41886315.6383378,6007.79053906163, 1, 1,15,30038.9526953082, 1,18,15
137,25173284.6882438,3610.62603101607, 1, 1,15,18053.1301550804, 1,18,15
138,227498521.024902,0.0, 1, 1,15,245683.503970653, 8,13,15
139,0.0,0.0, 1, 1,15,0.0, 1, 1,15
140,26.0878058871431,23.0859824359742,26, 7,30,30.0531598721682, 7,14,15
141,25.3946478709641,24.323914877153,26, 8,15,27.0889728754099, 7,14,15
142,25.4181132646964,22.9069314283635,26, 7,15,30.2378764718355, 7,13,60
143,25.7529595759197,22.9984357328392,26, 7,15,30.0824907814095, 7,13,60
144,25.1180874739251,23.936949149053,25,14,15,27.3860721483834, 7,13,60
145,25.2563676724446,24.2753697433676,26,21,60,27.2071680783099, 7,13,60
146,22964694.0128457,0.0, 1,14, 1,29562.2969766764,28, 6,60
147,24330980.6858874,0.0, 1, 1,15,51845.7548157229, 7,15,60
148,0.349520363687883,0.339028010060629, 7,15,60,0.356940605284672,25,22,22
149,12670872.43262,0.0, 1,12,60,19790.035128904,26, 6,60
150,14660556.9065275,0.0, 1, 1,15,30787.1305829157, 7,15,60
151,0.349171078550431,0.339020483693703, 7,15,60,0.357629503456578,28, 6,60
224,25.4181132646964,22.9069314283635,26, 7,15,30.2378764718355, 7,13,60
225,72.5363710462882,50.6826035812157,30,13,60,93.8828798089315, 2, 5,60
258,25.1180874739251,23.6027901541547, 8,14, 3,27.3860721483834, 7,13,60
259,73.9278896369312,55.7891351882235,27,18,60,94.5414354149693, 2, 5,60
260,0.0,0.0, 1, 1,15,0.0, 1, 1,15
291,291274205.969839,0.0, 1, 1,15,706931.600646938, 7,14, 1
322,2.101596408010664E-006,0.0, 1, 1,15,6.988329914747737E-008,18,14,45
323,0.0,0.0, 1, 1,15,0.0, 1, 1,15
324,112199492.631882,0.0, 1, 1,15,267456.711438388, 7,14, 1
325,4.660552832547182E-007,0.0, 1, 1,15,2.343085725442506E-008,12,14,60
408,103312071.460872,0.0, 1, 1,15,166632.373323987, 1, 6,15
461,62089590.5257512,0.0, 1, 1,15,100144.500847986, 1, 6,15
4,273, 9
8,49957541.9159453,7056.14998812789, 1, 8,15,23520.4999604263, 1, 1,15
9,30024016.3358732,4240.68027342838, 1, 8,15,14135.6009114279, 1, 1,15
71,33370272.5492178,0.0, 1, 1,15,42054.5337734314, 1,19,15
93,20055222.2892788,0.0, 1, 1,15,25274.3822171125, 1,19,15
125,40444445.908963,6007.79053906163, 1, 1,15,30038.9526953082, 1,18,15
137,24306734.4408,3610.62603101607, 1, 1,15,18053.1301550804, 1,18,15
138,187798573.63481,0.0, 1, 1,15,237790.895380048,23,12,30
139,0.0,0.0, 1, 1,15,0.0, 1, 1,15
140,24.7477849487346,22.3280303186664,30, 7,30,27.9685257200428, 8,14,15
141,24.6975434620612,23.7732847019919,30, 8,60,25.8550150973105, 8,14,15
142,24.3101364108706,22.0941093521799,30, 7,30,28.0523352906187, 7,13,60
143,24.5289606798026,22.2110698354232,30, 7,30,27.935205060992, 8,13,60
144,24.5330132434255,23.6812606252938,30, 7,60,26.0676450213582, 8,13,60
145,24.6152783527434,23.7431988572119,30, 7,60,25.9390464308116, 8,13,60
146,42778125.5508893,0.0, 1,14, 1,47031.0261175133,15,24,60
147,2681907.34119991,0.0, 1, 1,15,27694.8788054696,20,18,60
148,0.353112023189116,0.342487364160396, 6,15,60,0.361131359795011,30,24,60
149,26912074.7625082,0.0, 1,12,45,28881.5299877966,15,24,60
150,1608240.5851935,0.0, 1, 1,15,17164.9020851401,20,18,60
151,0.353381299451063,0.342491167950245, 6,15,60,0.36234253487474,30,24,60
224,24.3101364108706,22.0941093521799,30, 7,30,28.0523352906187, 7,13,60
225,63.6101203371536,35.9275806392425,16,13,60,88.7009901826826, 9, 6,60
258,24.5330132434255,23.6416932039829, 8,14, 3,26.0676450213582, 8,13,60
259,62.7530657279836,37.7806457722471,16,22,30,86.2403488752528, 9, 6,60
260,0.0,0.0, 1, 1,15,0.0, 1, 1,15
291,140528576.37734,0.0, 1, 1,15,444306.453783173, 8,14,45
322,2.560195001713847E-006,0.0, 1, 1,15,4.077378434885759E-008, 9,14,60
323,0.0,0.0, 1, 1,15,0.0, 1, 1,15
324,51948250.0723156,0.0, 1, 1,15,155987.250370882, 8,14,45
325,1.032331218604148E-006,0.0, 1, 1,15,9.362111086375080E-009,14,19,45
408,99979423.9943927,0.0, 1, 1,15,166632.373323987, 1, 6,15
461,60086700.5087915,0.0, 1, 1,15,100144.500847986, 1, 6,15
4,304,10
8,51566344.1132385,7056.14998812789, 1,15,15,23520.4999604263, 1, 1,15
9,30990891.4382149,4240.68027342838, 1,15,15,14135.6009114279, 1, 1,15
71,34526772.2279871,0.0, 1, 1,15,42054.5337734314, 1,19,15
93,20750267.8002494,0.0, 1, 1,15,25274.3822171125, 1,19,15
125,41814222.1518691,6007.79053906163, 1, 1,15,30038.9526953082, 1,19,15
137,25129957.1758716,3610.62603101607, 1, 1,15,18053.1301550804, 1,19,15
138,159797800.695886,0.0, 1, 1,15,222697.814531802,10,12,30
139,0.0,0.0, 1, 1,15,0.0, 1, 1,15
140,22.1368216287944,18.4269648824606,24, 7,30,26.5550113272338, 7,16,30
141,22.8266542302324,20.120167806912,25,10,30,26.2213462591892, 7,22,60
142,22.2218708422481,19.9999999999998,24, 4,15,26.5446687203227, 7,19,45
143,22.1793462355212,19.2134824412303,24, 7,30,26.5106638872052, 7,16,15
144,22.8571481127908,20.,31,12,30,26.5518973824527, 7,22,60
145,22.8419011715117,20.060083903456,25,10,30,26.3866218208209, 7,22,60
146,77486905.3297488,0.0,14,18,30,55821.8477434434,24, 3,60
147,47700.3770540207,0.0, 1, 1,15,14175.0582787769,14,18,60
148,0.358393524735328,0.350046074592611,22,15,60,0.369413864232151,24, 6,60
149,50522572.8879956,0.0,14,18,30,34861.6160606427,15,24,60
150,33227.921345622,0.0, 1, 1,15,9041.1776558799,14,18,60
151,0.359166594234226,0.348883401666677,22,15,60,0.369864110779651,24, 6,60
224,22.2218708422481,19.9999999999998,24, 4,15,26.5446687203227, 7,19,45
225,44.5486957514647,19.6414868466436,19,15,45,70.6688814313098,28,23,30
258,22.8571481127908,20.,31,12,30,26.5518973824527, 7,22,60
259,43.0653810188808,19.7124806839046,19,15,30,66.6858644981225,28,24,45
260,30034266.4688242,0.0, 1, 1,15,158227.614571092,24, 6,60
291,0.0,0.0, 1, 1,15,0.0, 1, 1,15
322,30034266.468825,0.0, 1, 1,15,158227.614571098,24, 6,60
323,172689.08245795,0.0, 1, 1,15,6952.84371078378,31,12,15
324,0.0,0.0, 1, 1,15,0.0, 1, 1,15
325,172689.082457956,0.0, 1, 1,15,6952.84371078396,31,12,15
408,103312071.460872,0.0, 1, 1,15,166632.373323987, 1, 6,15
461,62089590.5257512,0.0, 1, 1,15,100144.500847986, 1, 6,15
4,334,11
8,49769377.9162619,7056.14998812789, 1, 9,15,23520.4999604263, 1, 1,15
9,29910931.5285818,4240.68027342838, 1, 9,15,14135.6009114279, 1, 1,15
71,33517463.4174248,0.0, 1, 1,15,42054.5337734314, 1,20,15
93,20143682.6270387,0.0, 1, 1,15,25274.3822171125, 1,20,15
125,40516539.3954318,6007.79053906163, 1, 1,15,30038.9526953082, 1,19,15
137,24350061.9531722,3610.62603101607, 1, 1,15,18053.1301550804, 1,19,15
138,117802197.266608,0.0, 1, 1,15,177379.141180103, 2,12,30
139,0.0,0.0, 1, 1,15,0.0, 1, 1,15
140,19.0573745525937,17.4548276330981,27, 7,60,21.6379605112456, 7,16,30
141,20.039206237769,19.5360535094216,27, 7,60,21.6487844201387, 7,24,30
142,20.0771942421442,19.9999999999998,11, 2,60,21.7873482970033, 7,19,45
143,19.567284397369,18.7274138165491,27, 7,60,21.6826233478141, 7,16,15
144,20.177536939722,19.9999999999999,27, 8,15,22.0252047297582, 7,23,60
145,20.1083715887455,19.7680267547108,27, 7,60,21.8350077757072, 7,23,60
146,117252431.89162,3260.50789848154, 7,13,60,82070.750563187,30,24,60
147,0.0,0.0, 1, 1,15,0.0, 1, 1,15
148,0.365370830355868,0.350869683854704, 6,15,60,0.380959377968071,23, 8,60
149,70986613.0319296,1420.79096246457, 7,13,60,48185.6957580991,23, 7,60
150,0.0,0.0, 1, 1,15,0.0, 1, 1,15
151,0.365494673790219,0.349990869512465, 6,15,60,0.380968806488672,23, 8,60
224,20.0771942421442,19.9999999999998,11, 2,60,21.7873482970033, 7,19,45
225,37.1941877428448,15.9880235088718,23,14,45,62.4566271890306,19,12,45
258,20.177536939722,19.9999999999999,27, 8,15,22.0252047297582, 7,23,60
259,36.9184858238602,15.4249831686434,23,13,30,62.2212543812984,19,12,45
260,293081276.298713,0.0, 1,12,60,302218.809973167,27, 6,60
291,0.0,0.0, 1, 1,15,0.0, 1, 1,15
322,293081276.298721,0.0, 1,12,60,302218.809973179,27, 6,60
323,33291674.2299892,0.0, 1, 1,15,47567.4622646911,23, 6,60
324,0.0,0.0, 1, 1,15,0.0, 1, 1,15
325,33291674.2299903,0.0, 1, 1,15,47567.4622646927,23, 6,60
408,99979423.9943927,0.0, 1, 1,15,166632.373323987, 1, 7,15
461,60086700.5087915,0.0, 1, 1,15,100144.500847986, 1, 7,15
4,365,12
8,51754508.1129219,7056.14998812789, 1, 9,15,23520.4999604263, 1, 1,15
9,31103976.2455063,4240.68027342838, 1, 9,15,14135.6009114279, 1, 1,15
71,34379581.3597801,0.0, 1, 1,15,42054.5337734314, 1,20,15
93,20661807.4624895,0.0, 1, 1,15,25274.3822171125, 1,20,15
125,41742128.6654003,6007.79053906163, 1, 1,15,30038.9526953082, 1,19,15
137,25086629.6634994,3610.62603101607, 1, 1,15,18053.1301550804, 1,19,15
138,110371346.655287,0.0, 1, 1,15,164456.248757401,19,12,30
139,0.0,0.0, 1, 1,15,0.0, 1, 1,15
140,18.2463553523309,17.1100276167073,16, 8,30,19.6037285900438,29,15,45
141,19.6902175884817,19.413711446129,16, 8,60,20.0092786353244,29,23,60
142,20.,19.9999999999998,31, 4,60,20.0000000000001,16,23,30
143,19.1231776761654,18.5550138083536,16, 8,30,19.8018642950219,29,15,45
144,20.001801138023,19.9999999999999,16, 5,30,20.1837370610712,28,20,60
145,19.8460093632524,19.7068557230645,16, 8,60,20.0642156021708,28,22,60
146,196863562.28765,28781.1690099182,11,15,60,111497.165698916,31, 9,60
147,0.0,0.0, 1, 1,15,0.0, 1, 1,15
148,0.376303036069152,0.361526982206247,29,15,60,0.394470437655276,31,24,60
149,118281895.612115,17543.5450140988,11,15,60,66750.2217290775,31, 9,60
150,0.0,0.0, 1, 1,15,0.0, 1, 1,15
151,0.376305576711458,0.361528122167456,29,15,60,0.394468817334444,31,24,60
224,20.,19.9999999999998,31, 4,60,20.0000000000001,16,23,30
225,20.3015724631769,7.93036293952836,16,19,60,40.1823382533927,25, 4,30
258,20.001801138023,19.9999999999999,16, 5,30,20.1837370610712,28,20,60
259,20.2778664623321,7.44318409903727,16,19,60,40.8131537741023,25, 4,15
260,597918350.398339,46137.4064687571,29,15,60,383565.096556634,18, 6,60
291,0.0,0.0, 1, 1,15,0.0, 1, 1,15
322,597918350.398351,46137.4064687599,29,15,60,383565.096556648,18, 6,60
323,98732541.7685654,0.0,11,19,15,72494.1967594636,17, 7,15
324,0.0,0.0, 1, 1,15,0.0, 1, 1,15
325,98732541.7685685,0.0,11,19,15,72494.1967594648,17, 7,15
408,103312071.460872,0.0, 1, 1,15,166632.373323987, 1, 7,15
461,62089590.5257512,0.0, 1, 1,15,100144.500847986, 1, 7,15
End of Data
 Number of Records Written=         384
