Program Version,EnergyPlus, Version 8.4.0-09f5359d8a, YMD=2023.08.02 14:39
1,5,Environment Title[],Latitude[deg],Longitude[deg],Time Zone[],Elevation[m]
2,6,Day of Simulation[],Month[],Day of Month[],DST Indicator[1=yes 0=no],Hour[],StartMinute[],EndMinute[],DayType
3,3,Cumulative Day of Simulation[],Month[],Day of Month[],DST Indicator[1=yes 0=no],DayType  ! When Daily Report Variables Requested
4,2,Cumulative Days of Simulation[],Month[]  ! When Monthly Report Variables Requested
5,1,Cumulative Days of Simulation[] ! When Run Period Report Variables Requested
8,9,PERIM,Zone People Total Heating Energy [J] !Monthly  [Value,Min,Day,Hour,Minute,Max,Day,Hour,Minute]
9,9,CORE,Zone People Total Heating Energy [J] !Monthly  [Value,Min,Day,Hour,Minute,Max,Day,Hour,Minute]
71,9,PERIM,Zone Lights Electric Energy [J] !Monthly  [Value,Min,Day,Hour,Minute,Max,Day,Hour,Minute]
93,9,CORE,Zone Lights Electric Energy [J] !Monthly  [Value,Min,Day,Hour,Minute,Max,Day,Hour,Minute]
125,9,PERIM,Zone Electric Equipment Electric Energy [J] !Monthly  [Value,Min,Day,Hour,Minute,Max,Day,Hour,Minute]
137,9,CORE,Zone Electric Equipment Electric Energy [J] !Monthly  [Value,Min,Day,Hour,Minute,Max,Day,Hour,Minute]
138,9,PERIM,Zone Windows Total Transmitted Solar Radiation Energy [J] !Monthly  [Value,Min,Day,Hour,Minute,Max,Day,Hour,Minute]
139,9,CORE,Zone Windows Total Transmitted Solar Radiation Energy [J] !Monthly  [Value,Min,Day,Hour,Minute,Max,Day,Hour,Minute]
140,9,PERIM,Zone Mean Radiant Temperature [C] !Monthly [Value,Min,Day,Hour,Minute,Max,Day,Hour,Minute]
141,9,CORE,Zone Mean Radiant Temperature [C] !Monthly [Value,Min,Day,Hour,Minute,Max,Day,Hour,Minute]
142,9,PERIM,Zone Mean Air Temperature [C] !Monthly [Value,Min,Day,Hour,Minute,Max,Day,Hour,Minute]
143,9,PERIM,Zone Operative Temperature [C] !Monthly [Value,Min,Day,Hour,Minute,Max,Day,Hour,Minute]
144,9,CORE,Zone Mean Air Temperature [C] !Monthly [Value,Min,Day,Hour,Minute,Max,Day,Hour,Minute]
145,9,CORE,Zone Operative Temperature [C] !Monthly [Value,Min,Day,Hour,Minute,Max,Day,Hour,Minute]
146,9,PERIM,Zone Infiltration Total Heat Loss Energy [J] !Monthly  [Value,Min,Day,Hour,Minute,Max,Day,Hour,Minute]
147,9,PERIM,Zone Infiltration Total Heat Gain Energy [J] !Monthly  [Value,Min,Day,Hour,Minute,Max,Day,Hour,Minute]
148,9,PERIM,Zone Infiltration Air Change Rate [ach] !Monthly [Value,Min,Day,Hour,Minute,Max,Day,Hour,Minute]
149,9,CORE,Zone Infiltration Total Heat Loss Energy [J] !Monthly  [Value,Min,Day,Hour,Minute,Max,Day,Hour,Minute]
150,9,CORE,Zone Infiltration Total Heat Gain Energy [J] !Monthly  [Value,Min,Day,Hour,Minute,Max,Day,Hour,Minute]
151,9,CORE,Zone Infiltration Air Change Rate [ach] !Monthly [Value,Min,Day,Hour,Minute,Max,Day,Hour,Minute]
224,9,PERIM,Zone Air Temperature [C] !Monthly [Value,Min,Day,Hour,Minute,Max,Day,Hour,Minute]
225,9,PERIM,Zone Air Relative Humidity [%] !Monthly [Value,Min,Day,Hour,Minute,Max,Day,Hour,Minute]
258,9,CORE,Zone Air Temperature [C] !Monthly [Value,Min,Day,Hour,Minute,Max,Day,Hour,Minute]
259,9,CORE,Zone Air Relative Humidity [%] !Monthly [Value,Min,Day,Hour,Minute,Max,Day,Hour,Minute]
260,9,PERIM IDEAL LOADS AIR,Zone Ideal Loads Supply Air Total Heating Energy [J] !Monthly  [Value,Min,Day,Hour,Minute,Max,Day,Hour,Minute]
291,9,PERIM IDEAL LOADS AIR,Zone Ideal Loads Supply Air Total Cooling Energy [J] !Monthly  [Value,Min,Day,Hour,Minute,Max,Day,Hour,Minute]
322,9,PERIM IDEAL LOADS AIR,Zone Ideal Loads Zone Total Heating Energy [J] !Monthly  [Value,Min,Day,Hour,Minute,Max,Day,Hour,Minute]
323,9,CORE IDEAL LOADS AIR,Zone Ideal Loads Supply Air Total Heating Energy [J] !Monthly  [Value,Min,Day,Hour,Minute,Max,Day,Hour,Minute]
324,9,CORE IDEAL LOADS AIR,Zone Ideal Loads Supply Air Total Cooling Energy [J] !Monthly  [Value,Min,Day,Hour,Minute,Max,Day,Hour,Minute]
325,9,CORE IDEAL LOADS AIR,Zone Ideal Loads Zone Total Heating Energy [J] !Monthly  [Value,Min,Day,Hour,Minute,Max,Day,Hour,Minute]
408,9,DHW PERIM,Water Use Equipment Heating Energy [J] !Monthly  [Value,Min,Day,Hour,Minute,Max,Day,Hour,Minute]
461,9,DHW CORE,Water Use Equipment Heating Energy [J] !Monthly  [Value,Min,Day,Hour,Minute,Max,Day,Hour,Minute]
End of Data Dictionary
1,ARCHSIM,  37.57, 126.97,   9.00,  87.10
4,31, 1
8,51566344.1247449,7056.14998970235, 1,16,15,23520.4999656745, 1, 1,15
9,30990891.4456531,4240.68027444618, 1,16,15,14135.6009148206, 1, 1,15
71,34526772.2356914,0.0, 1, 1,15,42054.5337828152, 1,20,15
93,20750267.8052296,0.0, 1, 1,15,25274.3822231786, 1,20,15
125,41814222.1611991,6007.79054040217, 1, 1,15,30038.9527020109, 1,20,15
137,25129957.1819034,3610.62603188266, 1, 1,15,18053.1301594133, 1,20,15
138,106172600.368749,0.0, 1, 1,15,167158.262040368,31,13,30
139,0.0,0.0, 1, 1,15,0.0, 1, 1,15
140,18.1522156257059,17.1561816158948,14, 8,45,19.5141332338695, 8,15,15
141,19.6669868261368,19.4193611597457,15, 8,60,19.9794330721686, 8,23,60
142,20.,19.9999999999998,14, 7,30,20.0000000000002,14, 8,30
143,19.0761078128529,18.5780908079474,14, 8,45,19.7570666169348, 8,15,15
144,20.0006419557007,19.9999999999999,14, 4,30,20.1106506910821, 8,20,45
145,19.8338143909187,19.7096805798728,15, 8,60,20.0203619827924, 8,21,60
146,211059041.767247,25175.1157371745, 6,15,60,108724.552435788,23, 6,60
147,0.0,0.0, 1, 1,15,0.0, 1, 1,15
148,0.378405711230845,0.361293406352889, 6,15,60,0.39378574982471,23, 6,60
149,126781620.583128,15086.4681893942, 6,15,60,65413.5204578301,23, 6,60
150,0.0,0.0, 1, 1,15,0.0, 1, 1,15
151,0.378406971839887,0.361294289429555, 6,15,60,0.393784281350949,23, 6,60
224,20.,19.9999999999998,14, 7,30,20.0000000000002,14, 8,30
225,17.6794728181214,6.89016890335077,14,19,60,34.9189792961668, 2,22,45
258,20.0006419557007,19.9999999999999,14, 4,30,20.1106506910821, 8,20,45
259,17.6439448333364,6.26674310274466,14,19,60,35.2958966620879, 2,22,30
260,643263178.661836,44734.1595711465, 8,14,45,380525.91918298,23, 6,60
291,0.0,0.0, 1, 1,15,0.0, 1, 1,15
322,643263178.661849,44734.159571148, 8,14,45,380525.919182987,23, 6,60
323,110215329.127676,0.0, 2,20,15,74775.0671439589,23, 6,60
324,0.0,0.0, 1, 1,15,0.0, 1, 1,15
325,110215329.127679,0.0, 2,20,15,74775.0671439613,23, 6,60
408,103312071.483925,0.0, 1, 1,15,166632.373361169, 1, 7,15
461,62089590.5406531,0.0, 1, 1,15,100144.500872021, 1, 7,15
4,59, 2
8,46551773.5320631,7056.14998970235, 1, 9,15,23520.4999656745, 1, 1,15
9,27977181.3306133,4240.68027444618, 1, 9,15,14135.6009148206, 1, 1,15
71,31204464.0668489,0.0, 1, 1,15,42054.5337828152, 1,20,15
93,18753591.6095985,0.0, 1, 1,15,25274.3822231786, 1,20,15
125,37776986.9180488,6007.79054040217, 1, 1,15,30038.9527020109, 1,19,15
137,22703616.4884782,3610.62603188266, 1, 1,15,18053.1301594133, 1,19,15
138,124820173.281155,0.0, 1, 1,15,189752.637779268,27,13,30
139,0.0,0.0, 1, 1,15,0.0, 1, 1,15
140,18.5030139532143,17.3728470408063, 8, 6,60,20.2290825364488,28,15,60
141,19.7687288734108,19.5094317614543,11, 8,60,20.2791635388176,27,23,60
142,20.,19.9999999999998,11, 5,60,20.0000000000001,10, 7,60
143,19.2515069766071,18.6864235204032, 8, 6,60,20.1145412682244,28,15,60
144,20.0148110171631,19.9999999999999,11, 4,60,20.5181275503924,23,20,45
145,19.8917699452869,19.7547158807271,11, 8,60,20.3508297301121,23,20,60
146,166285261.713533,13788.0248670909,23,19,30,99844.4611796751, 8, 6,60
147,0.0,0.0, 1, 1,15,0.0, 1, 1,15
148,0.374581093621328,0.357818876653652,23,15,60,0.390041791153952, 8, 6,60
149,100067390.604643,8854.04994147406,23,18,60,59964.3820979135, 8, 6,60
150,0.0,0.0, 1, 1,15,0.0, 1, 1,15
151,0.37459912115794,0.357822001552598,23,15,60,0.390042639172232, 8, 6,60
224,20.,19.9999999999998,11, 5,60,20.0000000000001,10, 7,60
225,18.4602141681746,6.50324519394701, 9,17,60,37.954097795956, 3,22,15
258,20.0148110171631,19.9999999999999,11, 4,60,20.5181275503924,23,20,45
259,18.4755738922199,6.12994233228569, 9,17,60,38.370577483272, 3,21,60
260,458954078.0352,1430.59375204641,23,15,60,344491.492822677, 8, 6,60
291,0.0,0.0, 1, 1,15,0.0, 1, 1,15
322,458954078.035209,1430.59375204648,23,15,60,344491.492822681, 8, 6,60
323,75526243.1467564,0.0, 5,20,15,65623.2310881556, 8, 6,60
324,0.0,0.0, 1, 1,15,0.0, 1, 1,15
325,75526243.1467588,0.0, 5,20,15,65623.2310881556, 8, 6,60
408,93314129.0822546,0.0, 1, 1,15,166632.373361169, 1, 7,15
461,56080920.4883318,0.0, 1, 1,15,100144.500872021, 1, 7,15
4,90, 3
8,51378180.1250195,7056.14998970235, 1, 9,15,23520.4999656745, 1, 1,15
9,30877806.6383345,4240.68027444618, 1, 9,15,14135.6009148206, 1, 1,15
71,34673963.1039312,0.0, 1, 1,15,42054.5337828152, 1,20,15
93,20838728.1430107,0.0, 1, 1,15,25274.3822231786, 1,20,15
125,41886315.6476839,6007.79054040217, 1, 1,15,30038.9527020109, 1,19,15
137,25173284.694286,3610.62603188266, 1, 1,15,18053.1301594133, 1,19,15
138,183016976.361566,0.0, 1, 1,15,229408.967785023,23,13,30
139,0.0,0.0, 1, 1,15,0.0, 1, 1,15
140,19.2395178199417,17.6635710772516, 6, 7,30,21.3146047081812,19,16,45
141,20.068023493903,19.5812151240391, 8, 7,60,21.0169385407484,30,22,60
142,20.0598509013885,19.9999999999998, 6, 8,60,21.4818640865795,30,18,45
143,19.6496843606651,18.8317855386258, 6, 7,30,21.3277816225552,19,15,60
144,20.1230181861801,19.9999999999999, 7,11,15,21.2571531069138,30,21,60
145,20.0955208400415,19.7906075620196, 8, 7,60,21.1291845318591,30,22,60
146,134619802.570871,1727.40060093099,19,19,60,81508.4622223684, 8, 6,60
147,0.0,0.0, 1, 1,15,0.0, 1, 1,15
148,0.367442635597647,0.353375695180144,19,15,60,0.38306523023943, 8, 6,60
149,81367576.4704918,989.08919711266,19,19,60,49265.4805660962, 8, 6,60
150,0.0,0.0, 1, 1,15,0.0, 1, 1,15
151,0.367521167714477,0.352418175320934,19,15,60,0.383059417923586, 8, 6,60
224,20.0598509013885,19.9999999999998, 6, 8,60,21.4818640865795,30,18,45
225,23.5161050890262,8.78341778960967, 7,17,60,41.6615952612817,31,19,30
258,20.1230181861801,19.9999999999999, 7,11,15,21.2571531069138,30,21,60
259,23.4776893755142,8.48294773960362, 7,17,60,40.4064748620769,31,17,60
260,272537518.861772,0.0,11,14,15,282409.236561898, 8, 6,60
291,0.0,0.0, 1, 1,15,0.0, 1, 1,15
322,272537518.861778,0.0,11,14,15,282409.236561907, 8, 6,60
323,33999501.3728931,0.0, 1,20,15,51728.9581601584, 8, 6,60
324,0.0,0.0, 1, 1,15,0.0, 1, 1,15
325,33999501.3728943,0.0, 1,20,15,51728.9581601593, 8, 6,60
408,103312071.483925,0.0, 1, 1,15,166632.373361169, 1, 7,15
461,62089590.5406531,0.0, 1, 1,15,100144.500872021, 1, 7,15
4,120, 4
8,50145705.9268182,7056.14998970235, 1,15,15,23520.4999656745, 1, 1,15
9,30137101.1503979,4240.68027444618, 1,15,15,14135.6009148206, 1, 1,15
71,33223081.6884241,0.0, 1, 1,15,42054.5337828152, 1,19,15
93,19966761.956311,0.0, 1, 1,15,25274.3822231786, 1,19,15
125,40372352.4315026,6007.79054040217, 1, 1,15,30038.9527020109, 1,19,15
137,24263406.9342516,3610.62603188266, 1, 1,15,18053.1301594133, 1,19,15
138,194216936.933609,0.0, 1, 1,15,242153.867669552,19,12,30
139,0.0,0.0, 1, 1,15,0.0, 1, 1,15
140,21.1435042065694,18.0331381203205, 1, 7,15,25.6244698290964,11,17,45
141,21.6839523118801,19.7957341747491, 1, 8,45,25.2504915705751,12,22,60
142,21.3446410437678,19.9999999999999, 5, 5,15,26.1906666819604,11,18,45
143,21.2440726251686,19.0165690601602, 1, 7,15,25.9041768893368,11,18,45
144,21.6856901203964,20., 1, 7,15,25.5082947341948,12,21,60
145,21.6848212161382,19.8978670873746, 1, 8,45,25.3649038182579,12,22,60
146,88967387.1104836,0.0, 7,19,60,65940.0978046145, 1, 1,60
147,139417.023591074,0.0, 1, 1,15,16832.3326133616,19,19,60
148,0.360800240343757,0.348143248297782,19,12,60,0.372170947761391, 1, 4,60
149,55553803.3999749,0.0, 7,19,45,38707.1931945415, 1, 1,60
150,157920.046111797,0.0, 1, 1,15,13087.9837620866,19,19,60
151,0.361222648795242,0.346868470644367,19,12,60,0.372190812725101, 1, 4,60
224,21.3446410437678,19.9999999999999, 5, 5,15,26.1906666819604,11,18,45
225,36.0673914378835,17.6745534631507,18,17,30,66.4407020225445,20,23,45
258,21.6856901203964,20., 1, 7,15,25.5082947341948,12,21,60
259,35.2429081764879,18.4972421566213,18,18,15,59.3904282218275,25, 1,45
260,72864303.1315088,0.0, 2,13,45,222300.344458231, 1, 7,15
291,0.0,0.0, 1, 1,15,0.0, 1, 1,15
322,72864303.1315108,0.0, 2,13,45,222300.344458233, 1, 7,15
323,4560768.92169408,0.0, 1,19,15,27189.3428274052, 1, 7,60
324,0.0,0.0, 1, 1,15,0.0, 1, 1,15
325,4560768.92169426,0.0, 1,19,15,27189.342827406, 1, 7,60
408,99979424.0167015,0.0, 1, 1,15,166632.373361169, 1, 6,15
461,60086700.5232127,0.0, 1, 1,15,100144.500872021, 1, 6,15
4,151, 5
8,51378180.1250195,7056.14998970235, 1, 8,15,23520.4999656745, 1, 1,15
9,30877806.6383346,4240.68027444618, 1, 8,15,14135.6009148206, 1, 1,15
71,34673963.1039312,0.0, 1, 1,15,42054.5337828152, 1,19,15
93,20838728.1430107,0.0, 1, 1,15,25274.3822231786, 1,19,15
125,41886315.6476839,6007.79054040217, 1, 1,15,30038.9527020109, 1,18,15
137,25173284.694286,3610.62603188266, 1, 1,15,18053.1301594133, 1,18,15
138,215865074.568706,0.0, 1, 1,15,236381.617087403,14,13,15
139,0.0,0.0, 1, 1,15,0.0, 1, 1,15
140,24.7861066661443,18.8905857649672, 3, 7,30,31.6973474192986,26,16,60
141,25.2295692961997,20.8561422583281, 4,11,45,30.8570821416849,26,22,60
142,24.711118909907,18.6472243084442, 3, 6,60,31.8194737987967,26,18,30
143,24.7486127880256,18.7770654063546, 3, 6,60,31.7007321153225,26,18,30
144,25.2554869849934,20.7214021652946, 4, 9,45,31.1019246468317,26,21,60
145,25.2425281405966,20.7973246549315, 4,11,30,30.977479662897,26,22,60
146,78769807.3768391,0.0, 7,20,60,59521.8669469795,17, 5,60
147,163874.245312609,0.0, 1, 1,15,13764.140379791,11,18,60
148,0.357971249123759,0.348518357105022,23,15,60,0.364602965367144,18,21,52
149,50947754.5224934,0.0, 7,15,45,38807.5082375866,17, 5,60
150,201982.598649331,0.0, 1, 1,15,10619.5319063082,11,18,60
151,0.358637235909761,0.346169246975307,23,15,60,0.366928738634296, 6, 6,60
224,24.711118909907,18.6472243084442, 3, 6,60,31.8194737987967,26,18,30
225,44.1947811029724,21.9250551406039, 8,17,15,69.107007906236,28,14,60
258,25.2554869849934,20.7214021652946, 4, 9,45,31.1019246468317,26,21,60
259,42.6709136600217,23.8689326574841,17,15,60,64.7138090390253,28,15,30
260,0.0,0.0, 1, 1,15,0.0, 1, 1,15
291,0.0,0.0, 1, 1,15,0.0, 1, 1,15
322,0.0,0.0, 1, 1,15,0.0, 1, 1,15
323,0.0,0.0, 1, 1,15,0.0, 1, 1,15
324,0.0,0.0, 1, 1,15,0.0, 1, 1,15
325,0.0,0.0, 1, 1,15,0.0, 1, 1,15
408,103312071.483925,0.0, 1, 1,15,166632.373361169, 1, 6,15
461,62089590.5406531,0.0, 1, 1,15,100144.500872021, 1, 6,15
4,181, 6
8,49769377.9273674,7056.14998970235, 1, 8,15,23520.4999656745, 1, 1,15
9,29910931.5357608,4240.68027444618, 1, 8,15,14135.6009148206, 1, 1,15
71,33517463.4249038,0.0, 1, 1,15,42054.5337828152, 1,19,15
93,20143682.6318733,0.0, 1, 1,15,25274.3822231786, 1,19,15
125,40516539.4044722,6007.79054040217, 1, 1,15,30038.9527020109, 1,18,15
137,24350061.9590167,3610.62603188266, 1, 1,15,18053.1301594133, 1,18,15
138,225895677.577296,0.0, 1, 1,15,243382.848748329,11,13,30
139,0.0,0.0, 1, 1,15,0.0, 1, 1,15
140,29.812108037542,24.7795245960859, 1, 6,15,34.5687163658264,11,17,30
141,30.0673512446868,26.2104668717988, 1,10,30,33.7078064968304,11,22,60
142,29.7195372649099,24.4017286355082, 1, 5,60,34.8588134135857,10,19,30
143,29.765822651226,24.6173001206939, 1, 5,60,34.6507800588974,10,19,30
144,30.0771622296865,26.0526387619139, 1, 9,45,33.9181254796806,11,22,60
145,30.0722567371867,26.1383138415676, 1, 9,45,33.8129659882555,11,22,60
146,83849714.0953471,0.0, 1,15,45,51386.7193917923, 1, 4,60
147,8203.77532398871,0.0, 1, 1,15,6751.01694329094, 1,15,60
148,0.357546095560673,0.350855372145372,15,15,60,0.364588499638313,12, 3,60
149,52766059.354242,0.0, 1,15,45,35061.3132308792,12, 7,15
150,11253.2612822428,0.0, 1, 1,15,6172.47512177778, 1,15,60
151,0.35797588481294,0.349354792740014,25,15,60,0.367526186340766,12, 6,60
224,29.7195372649099,24.4017286355082, 1, 5,60,34.8588134135857,10,19,30
225,47.9797130764665,20.1219675557526, 1,15,15,74.4196223431454,14, 5,60
258,30.0771622296865,26.0526387619139, 1, 9,45,33.9181254796806,11,22,60
259,46.8643783578774,21.4745294976973, 1,15,15,69.3484043207893,14, 5,60
260,0.0,0.0, 1, 1,15,0.0, 1, 1,15
291,0.0,0.0, 1, 1,15,0.0, 1, 1,15
322,0.0,0.0, 1, 1,15,0.0, 1, 1,15
323,0.0,0.0, 1, 1,15,0.0, 1, 1,15
324,0.0,0.0, 1, 1,15,0.0, 1, 1,15
325,0.0,0.0, 1, 1,15,0.0, 1, 1,15
408,99979424.0167015,0.0, 1, 1,15,166632.373361169, 1, 6,15
461,60086700.5232127,0.0, 1, 1,15,100144.500872021, 1, 6,15
4,212, 7
8,51754508.1244703,7056.14998970235, 1,15,15,23520.4999656745, 1, 1,15
9,31103976.2529717,4240.68027444618, 1,15,15,14135.6009148206, 1, 1,15
71,34379581.3674515,0.0, 1, 1,15,42054.5337828152, 1,19,15
93,20661807.4674484,0.0, 1, 1,15,25274.3822231786, 1,19,15
125,41742128.6747143,6007.79054040217, 1, 1,15,30038.9527020109, 1,19,15
137,25086629.6695208,3610.62603188266, 1, 1,15,18053.1301594133, 1,19,15
138,189671587.769138,0.0, 1, 1,15,212433.102179474, 6,12,30
139,0.0,0.0, 1, 1,15,0.0, 1, 1,15
140,25.9738200760521,24.0285266644132,12, 4,30,30.914767371881, 1,14,15
141,25.4271674095979,24.4947477284182,17,22,15,30.1735668625136, 1, 1,15
142,25.4031397862786,23.9476275645867,17,14,15,30.97019720015, 1,13,60
143,25.6884799311654,24.0132895555836,12, 4,30,30.8913527545546, 1,13,60
144,25.1690261875657,23.9650360592892,18,14,15,29.9998114675554, 1, 1,15
145,25.2980967985818,24.2497310505935,17,21,60,30.0866891650345, 1, 1,15
146,21303350.1510009,0.0, 1,14, 1,30801.1508852197, 1, 1,15
147,23064348.0839141,0.0, 1, 1,15,50892.2346068377,30,14,45
148,0.349787314012211,0.341174621307193,20,15,60,0.35702419573736, 1, 2,15
149,11825200.6490106,0.0, 1,14, 1,21970.0812567008, 1, 3,60
150,13791179.0358741,0.0, 1, 1,15,29750.8872199241,31,15,60
151,0.349513565504722,0.341168391130062,20,15,60,0.358858946779322, 1, 3,60
224,25.4031397862786,23.2954019034386, 1,14, 3,30.97019720015, 1,13,60
225,73.8904906153455,52.62433810564,12,13,60,91.5812797041147, 2,14, 3
258,25.1690261875657,23.5056338407596, 1,14, 3,29.9998114675554, 1, 1,15
259,74.9845601724684,57.898788056579, 6,22,30,91.8304566137176, 2,14, 1
260,0.0,0.0, 1, 1,15,0.0, 1, 1,15
291,259812507.30186,0.0, 1, 1,15,801183.278158734, 1,14,45
322,1.553559769718049E-006,0.0, 1, 1,15,5.484253051690757E-008, 1,14,45
323,0.0,0.0, 1, 1,15,0.0, 1, 1,15
324,109353542.25322,0.0, 1, 1,15,462774.413451864, 1,14,45
325,4.739952430554695E-007,0.0, 1, 1,15,2.696083356568124E-008, 1,15,15
408,103312071.483925,0.0, 1, 1,15,166632.373361169, 1, 6,15
461,62089590.5406531,0.0, 1, 1,15,100144.500872021, 1, 6,15
4,243, 8
8,51378180.1250195,7056.14998970235, 1, 8,15,23520.4999656745, 1, 1,15
9,30877806.6383346,4240.68027444618, 1, 8,15,14135.6009148206, 1, 1,15
71,34673963.1039312,0.0, 1, 1,15,42054.5337828152, 1,19,15
93,20838728.1430107,0.0, 1, 1,15,25274.3822231786, 1,19,15
125,41886315.6476839,6007.79054040217, 1, 1,15,30038.9527020109, 1,18,15
137,25173284.694286,3610.62603188266, 1, 1,15,18053.1301594133, 1,18,15
138,198966674.5072,0.0, 1, 1,15,215854.846011344, 8,13,15
139,0.0,0.0, 1, 1,15,0.0, 1, 1,15
140,26.0335859749581,23.1559940425967,26, 7,30,29.8178463545424, 7,14,15
141,25.3791231833081,24.3556665304951,26, 8,15,27.0459549080097, 7,14,15
142,25.4180362892259,22.9922478443453,26, 7,15,30.0408452671866, 7,13,60
143,25.725811132092,23.0782919624455,26, 7,15,29.870635775518, 7,13,60
144,25.1205269635914,23.9403871159302,25,14,15,27.3579272543451, 7,13,60
145,25.2498250734498,24.2656708469554,26,21,60,27.1731805228426, 7,13,60
146,21847507.9716424,0.0, 1,14, 1,29199.5389159932,28, 6,60
147,24946453.9101583,0.0, 1, 1,15,52402.121518907, 7,15,60
148,0.349235694825012,0.338759351292503, 7,15,60,0.356683368690114,25,22,22
149,12040732.8913172,0.0, 1,12,30,19463.4574172101,26, 6,60
150,15080730.5715826,0.0, 1, 1,15,31130.2041144553, 7,15,60
151,0.348889460021252,0.338752000330579, 7,15,60,0.357348448720317,28, 6,60
224,25.4180362892259,22.9922478443453,26, 7,15,30.0408452671866, 7,13,60
225,72.5677324827904,51.0816913967037,30,13,60,93.6350225953693, 2, 5,60
258,25.1205269635914,23.5894175377342, 8,14, 3,27.3579272543451, 7,13,60
259,73.9544816627262,55.7537510688715,27,18,60,94.5115522190075, 2, 5,60
260,0.0,0.0, 1, 1,15,0.0, 1, 1,15
291,277231656.880142,0.0, 1, 1,15,691647.536732692, 7,14, 1
322,2.150207727424913E-006,0.0, 1, 1,15,6.548361852765083E-008, 7,14,60
323,0.0,0.0, 1, 1,15,0.0, 1, 1,15
324,110202448.097289,0.0, 1, 1,15,265393.1867453, 7,14, 1
325,4.534611797168964E-007,0.0, 1, 1,15,1.680575678619789E-008,12,16,15
408,103312071.483925,0.0, 1, 1,15,166632.373361169, 1, 6,15
461,62089590.5406531,0.0, 1, 1,15,100144.500872021, 1, 6,15
4,273, 9
8,49957541.9270928,7056.14998970235, 1, 8,15,23520.4999656745, 1, 1,15
9,30024016.3430794,4240.68027444618, 1, 8,15,14135.6009148206, 1, 1,15
71,33370272.5566639,0.0, 1, 1,15,42054.5337828152, 1,19,15
93,20055222.2940922,0.0, 1, 1,15,25274.3822231786, 1,19,15
125,40444445.9179874,6007.79054040217, 1, 1,15,30038.9527020109, 1,18,15
137,24306734.4466341,3610.62603188266, 1, 1,15,18053.1301594133, 1,18,15
138,164883483.063658,0.0, 1, 1,15,207060.936638506,23,12,30
139,0.0,0.0, 1, 1,15,0.0, 1, 1,15
140,24.7198131334488,22.4187679962514,30, 7,30,27.7803793130536, 8,14,15
141,24.6906566790208,23.8137173979106,30, 8,60,25.8390281356562, 8,14,15
142,24.329250326051,22.1929167263189,30, 7,30,27.8850805034068, 7,13,60
143,24.5245317297499,22.3058423612852,30, 7,30,27.7738659038036, 8,13,60
144,24.5418924424446,23.7272215125377,30, 7,60,26.0661297414066, 8,13,60
145,24.6162745607327,23.7852672650399,30, 7,60,25.931734950569, 8,13,60
146,41276915.9531403,0.0, 1,14, 1,46442.5501188695,15,24,60
147,2913399.01534313,0.0, 1, 1,15,28414.2577044445,20,18,60
148,0.352843967022174,0.342213652931836, 6,15,60,0.360861641675792,30,24,60
149,25956243.4645686,0.0, 1,12,45,28477.662467725,15,24,60
150,1760789.31968494,0.0, 1, 1,15,17542.7777984781,20,18,60
151,0.353100629723338,0.342217166592517, 6,15,60,0.362028485738658,30,24,60
224,24.329250326051,22.1929167263189,30, 7,30,27.8850805034068, 7,13,60
225,63.5337766141932,36.1888675817399,16,13,60,88.2800416644612, 9, 6,60
258,24.5418924424446,23.6373016833392, 8,14, 3,26.0661297414066, 8,13,60
259,62.7216012966997,37.8024983355519,16,22,30,86.1399951112414, 9, 6,60
260,0.0,0.0, 1, 1,15,0.0, 1, 1,15
291,131761994.891617,0.0, 1, 1,15,416181.478858574, 8,14,45
322,2.468699041381838E-006,0.0, 1, 1,15,3.524860403558705E-008, 5,17,15
323,0.0,0.0, 1, 1,15,0.0, 1, 1,15
324,50995165.2860639,0.0, 1, 1,15,155143.594007179, 8,14,45
325,1.001112313048225E-006,0.0, 1, 1,15,8.965628239820944E-009, 6,16,60
408,99979424.0167015,0.0, 1, 1,15,166632.373361169, 1, 6,15
461,60086700.5232127,0.0, 1, 1,15,100144.500872021, 1, 6,15
4,304,10
8,51566344.1247449,7056.14998970235, 1,15,15,23520.4999656745, 1, 1,15
9,30990891.4456531,4240.68027444618, 1,15,15,14135.6009148206, 1, 1,15
71,34526772.2356914,0.0, 1, 1,15,42054.5337828152, 1,19,15
93,20750267.8052296,0.0, 1, 1,15,25274.3822231786, 1,19,15
125,41814222.1611991,6007.79054040217, 1, 1,15,30038.9527020109, 1,19,15
137,25129957.1819034,3610.62603188266, 1, 1,15,18053.1301594133, 1,19,15
138,139133439.178203,0.0, 1, 1,15,194807.672988291,10,12,30
139,0.0,0.0, 1, 1,15,0.0, 1, 1,15
140,22.0396305248116,18.458787595283,24, 7,30,26.2438170849923, 7,16,30
141,22.7459181200429,20.1101198801312,25,11,30,26.0613286590066, 7,22,60
142,22.1519314216411,19.9999999999999,31, 4,60,26.365886991678, 7,19,45
143,22.0957809732264,19.2293937976415,24, 7,30,26.219135545725, 7,16,15
144,22.7917621329773,20.,31,12,30,26.4071663073094, 7,22,60
145,22.7688401265101,20.0550599400656,25,11,30,26.234247483158, 7,22,60
146,74771119.36258,0.0,14,18,30,55029.2341685695,24, 3,60
147,59035.8719114004,0.0, 1, 1,15,15376.9372095495,14,18,60
148,0.35800824192593,0.34949554689215,22,15,60,0.369091325140426,24, 6,60
149,48894967.5037114,0.0,14,18,30,34199.1478740296,15,24,60
150,38613.498263283,0.0, 1, 1,15,9606.74558683612,14,18,60
151,0.358785540613547,0.348491750601533,22,15,60,0.369557630529879,24, 6,60
224,22.1519314216411,19.9999999999999,31, 4,60,26.365886991678, 7,19,45
225,44.6960550429334,19.8329124934617,19,15,45,70.6030604765736,28,23,30
258,22.7917621329773,20.,31,12,30,26.4071663073094, 7,22,60
259,43.2083286100023,19.7579890839455,19,15,30,66.6270968187892,28,24,45
260,29376952.3829173,0.0, 1, 1,15,153946.91619218,24, 6,60
291,0.0,0.0, 1, 1,15,0.0, 1, 1,15
322,29376952.3829182,0.0, 1, 1,15,153946.916192185,24, 6,60
323,199441.969680696,0.0, 1, 1,15,7485.02684948877,31,12,15
324,0.0,0.0, 1, 1,15,0.0, 1, 1,15
325,199441.969680703,0.0, 1, 1,15,7485.02684948926,31,12,15
408,103312071.483925,0.0, 1, 1,15,166632.373361169, 1, 6,15
461,62089590.5406531,0.0, 1, 1,15,100144.500872021, 1, 6,15
4,334,11
8,49769377.9273674,7056.14998970235, 1, 9,15,23520.4999656745, 1, 1,15
9,29910931.5357608,4240.68027444618, 1, 9,15,14135.6009148206, 1, 1,15
71,33517463.4249038,0.0, 1, 1,15,42054.5337828152, 1,20,15
93,20143682.6318733,0.0, 1, 1,15,25274.3822231786, 1,20,15
125,40516539.4044722,6007.79054040217, 1, 1,15,30038.9527020109, 1,19,15
137,24350061.9590167,3610.62603188266, 1, 1,15,18053.1301594133, 1,19,15
138,101839095.915472,0.0, 1, 1,15,156247.380208762, 2,12,30
139,0.0,0.0, 1, 1,15,0.0, 1, 1,15
140,19.0300909957659,17.4754148452593,27, 7,60,21.4317095629345, 7,16,30
141,20.0185273434709,19.5376640799085,27, 6,60,21.5745022668058, 7,24,60
142,20.065694679804,19.9999999999998,11, 7,45,21.6929580535873, 7,20,45
143,19.547892837785,18.7377074226297,27, 7,60,21.4969155677551, 7,16,15
144,20.1675951104762,19.9999999999999,24, 4,30,21.9599844778699, 7,23,60
145,20.0930612269735,19.7688320399543,27, 6,60,21.7642172746936, 7,23,60
146,115059526.918475,2279.5254476373, 7,13,60,81253.5913938859,30,24,60
147,0.0,0.0, 1, 1,15,0.0, 1, 1,15
148,0.36504090379706,0.350404579140201, 6,15,60,0.38061600187791,23, 8,60
149,69672838.2743567,964.940044219281, 7,13,60,47710.6152441174,23, 7,60
150,0.0,0.0, 1, 1,15,0.0, 1, 1,15
151,0.365166390649992,0.349652209684437, 6,15,60,0.380625189759749,23, 8,60
224,20.065694679804,19.9999999999998,11, 7,45,21.6929580535873, 7,20,45
225,37.2249453894896,15.9842617278916,23,14,45,62.5165073158656,19,12,60
258,20.1675951104762,19.9999999999999,24, 4,30,21.9599844778699, 7,23,60
259,36.9439550874401,15.4239257399003,23,13,30,62.2162337976677,19,12,45
260,290443596.441893,0.0, 1,13,15,298673.351091215,27, 6,60
291,0.0,0.0, 1, 1,15,0.0, 1, 1,15
322,290443596.4419,0.0, 1,13,15,298673.351091232,27, 6,60
323,33036168.2551095,0.0, 1, 1,15,46742.7528001767,23, 6,60
324,0.0,0.0, 1, 1,15,0.0, 1, 1,15
325,33036168.2551107,0.0, 1, 1,15,46742.7528001781,23, 6,60
408,99979424.0167015,0.0, 1, 1,15,166632.373361169, 1, 7,15
461,60086700.5232127,0.0, 1, 1,15,100144.500872021, 1, 7,15
4,365,12
8,51754508.1244703,7056.14998970235, 1, 9,15,23520.4999656745, 1, 1,15
9,31103976.2529717,4240.68027444618, 1, 9,15,14135.6009148206, 1, 1,15
71,34379581.3674515,0.0, 1, 1,15,42054.5337828152, 1,20,15
93,20661807.4674484,0.0, 1, 1,15,25274.3822231786, 1,20,15
125,41742128.6747143,6007.79054040217, 1, 1,15,30038.9527020109, 1,19,15
137,25086629.6695208,3610.62603188266, 1, 1,15,18053.1301594133, 1,19,15
138,95587662.4690104,0.0, 1, 1,15,142509.364642922,19,12,30
139,0.0,0.0, 1, 1,15,0.0, 1, 1,15
140,18.2553790600488,17.173246807872,31,24,60,19.5041580568976,29,15,45
141,19.6878461354043,19.4251782433396,16, 8,60,19.9960069212917,29,23,60
142,20.,19.9999999999998,16, 4,30,20.0000000000002,31,19,60
143,19.1276895300244,18.586623403936,31,24,60,19.7520790284488,29,15,45
144,20.0017602732489,19.9999999999999,31, 5,15,20.1744360685428,28,20,60
145,19.8448032043266,19.7125891216698,16, 8,60,20.0558240653577,28,22,60
146,194571654.331817,28036.5714129081,11,15,60,110628.558843217,31, 9,60
147,0.0,0.0, 1, 1,15,0.0, 1, 1,15
148,0.375967609634444,0.361217420232539,29,15,60,0.394101955685522,31,24,60
149,116897116.936933,17110.8438026003,11,15,60,66242.0914483144,31, 9,60
150,0.0,0.0, 1, 1,15,0.0, 1, 1,15
151,0.375970143630661,0.361218654296203,29,15,60,0.394100373835497,31,24,60
224,20.,19.9999999999998,16, 4,30,20.0000000000002,31,19,60
225,20.3087879761789,7.93370898671394,16,19,60,40.2039706595419,25, 4,30
258,20.0017602732489,19.9999999999999,31, 5,15,20.1744360685428,28,20,60
259,20.2813316705492,7.44667312553765,16,19,60,40.8205987118639,25, 4,15
260,588414084.274839,50004.5509802374,29,15,60,373780.582537592,18, 6,60
291,0.0,0.0, 1, 1,15,0.0, 1, 1,15
322,588414084.274852,50004.5509802381,29,15,60,373780.582537596,18, 6,60
323,97536873.2004322,0.0,11,19,30,71425.3017343761,17, 6,60
324,0.0,0.0, 1, 1,15,0.0, 1, 1,15
325,97536873.2004351,0.0,11,19,30,71425.3017343799,17, 6,60
408,103312071.483925,0.0, 1, 1,15,166632.373361169, 1, 7,15
461,62089590.5406531,0.0, 1, 1,15,100144.500872021, 1, 7,15
End of Data
 Number of Records Written=         384
